
                                 *****************
                                 * O   R   C   A *
                                 *****************

           --- An Ab Initio, DFT and Semiempirical electronic structure package ---

                  #######################################################
                  #                        -***-                        #
                  #  Department of molecular theory and spectroscopy    #
                  #              Directorship: Frank Neese              #
                  # Max Planck Institute for Chemical Energy Conversion #
                  #                  D-45470 Muelheim/Ruhr              #
                  #                       Germany                       #
                  #                                                     #
                  #                  All rights reserved                #
                  #                        -***-                        #
                  #######################################################


                         Program Version 4.0.1.2 - RELEASE -


 With contributions from (in alphabetic order):
   Daniel Aravena         : Magnetic Properties
   Michael Atanasov       : Ab Initio Ligand Field Theory
   Ute Becker             : Parallelization
   Martin Brehm           : Molecular dynamics
   Dmytro Bykov           : SCF Hessian
   Vijay G. Chilkuri      : MRCI spin determinant printing
   Dipayan Datta          : RHF DLPNO-CCSD density
   Achintya Kumar Dutta   : EOM-CC, STEOM-CC
   Dmitry Ganyushin       : Spin-Orbit,Spin-Spin,Magnetic field MRCI
   Yang Guo               : DLPNO-NEVPT2, CIM, IAO-localization
   Andreas Hansen         : Spin unrestricted coupled pair/coupled cluster methods
   Lee Huntington         : MR-EOM, pCC
   Robert Izsak           : Overlap fitted RIJCOSX, COSX-SCS-MP3, EOM
   Christian Kollmar      : KDIIS, OOCD, Brueckner-CCSD(T), CCSD density
   Simone Kossmann        : Meta GGA functionals, TD-DFT gradient, OOMP2, MP2 Hessian
   Martin Krupicka        : AUTO-CI
   Dagmar Lenk            : GEPOL surface
   Dimitrios Liakos       : Extrapolation schemes; parallel MDCI
   Dimitrios Manganas     : ROCIS; embedding schemes
   Dimitrios Pantazis     : SARC Basis sets
   Taras Petrenko         : DFT Hessian,TD-DFT gradient, ASA, ECA, R-Raman, ABS, FL, XAS/XES, NRVS
   Peter Pinski           : DLPNO-MP2
   Christoph Reimann      : Effective Core Potentials
   Marius Retegan         : Local ZFS, SOC
   Christoph Riplinger    : Optimizer, TS searches, QM/MM, DLPNO-CCSD(T), (RO)-DLPNO pert. Triples
   Tobias Risthaus        : Range-separated hybrids, TD-DFT gradient, RPA, STAB
   Michael Roemelt        : Restricted open shell CIS
   Masaaki Saitow         : Open-shell DLPNO
   Barbara Sandhoefer     : DKH picture change effects
   Kantharuban Sivalingam : CASSCF convergence, NEVPT2, FIC-MRCI
   Georgi Stoychev        : AutoAux
   Boris Wezisla          : Elementary symmetry handling
   Frank Wennmohs         : Technical directorship


 We gratefully acknowledge several colleagues who have allowed us to
 interface, adapt or use parts of their codes:
   Stefan Grimme, W. Hujo, H. Kruse,             : VdW corrections, initial TS optimization,
                  C. Bannwarth                     DFT functionals, gCP, sTDA/sTD-DF
   Ed Valeev                                     : LibInt (2-el integral package), F12 methods
   Garnet Chan, S. Sharma, J. Yang, R. Olivares  : DMRG
   Ulf Ekstrom                                   : XCFun DFT Library
   Mihaly Kallay                                 : mrcc  (arbitrary order and MRCC methods)
   Andreas Klamt, Michael Diedenhofen            : otool_cosmo (COSMO solvation model)
   Jiri Pittner, Ondrej Demel                    : Mk-CCSD
   Frank Weinhold                                : gennbo (NPA and NBO analysis)
   Christopher J. Cramer and Donald G. Truhlar   : smd solvation model


 Your calculation uses the libint2 library for the computation of 2-el integrals
 For citations please refer to: http://libint.valeyev.net

 This ORCA versions uses:
   CBLAS   interface :  Fast vector & matrix operations
   LAPACKE interface :  Fast linear algebra routines
   SCALAPACK package :  Parallel linear algebra routines


Your calculation utilizes the basis: 6-31G**
   H-He, Li-Ne : W. J. Hehre, R. Ditchfield and J.A. Pople, J. Chem. Phys. 56, 2257 (1972).
                 Note: He and Ne are unpublished basis sets taken from the Gaussian program.
                 Note: Li and B from J. D. Dill and J. A. Pople, J. Chem. Phys. 62, 2921 (1975).
   Na - Ar     : M. M. Francl, W. J. Pietro, W. J. Hehre, J. S. Binkley, M. S. Gordon, 
                 D. J. DeFrees and J. A. Pople, J. Chem. Phys. 77, 3654 (1982).
   K - Zn      : V. A. Rassolov, J. A. Pople, M. A. Ratner, and T. L. Windus, J. Chem. Phys. 109, 1223 (1998).

================================================================================
                                        WARNINGS
                       Please study these warnings very carefully!
================================================================================

Warning: TCutStore was < 0. Adjusted to Thresh (uncritical)

WARNING: The frozen-core approximation for MP2-gradient calculations is turned on by default.

WARNING: Geometry Optimization
  ===> : Switching off AutoStart
         For restart on a previous wavefunction, please use MOREAD

WARNING: Post HF methods need fully converged wavefunctions
  ===> : Setting SCFConvForced true
         You can overwrite this default with %scf ConvForced false 


INFO   : the flag for use of LIBINT has been found!

================================================================================
                                       INPUT FILE
================================================================================
NAME = benzene_dimer.inp
|  1> !MP2 6-31G** Opt
|  2> 
|  3> *xyz 0 1
|  4> C      0.000000000000     1.950000000000     1.391500000000
|  5> H      0.000000000000     1.950000000000     2.471500000000
|  6> C      1.205074349366     1.950000000000     0.695750000000
|  7> H      2.140381785453     1.950000000000     1.235750000000
|  8> C      1.205074349366     1.950000000000    -0.695750000000
|  9> H      2.140381785453     1.950000000000    -1.235750000000
| 10> C     -0.000000000000     1.950000000000    -1.391500000000
| 11> H     -0.000000000000     1.950000000000    -2.471500000000
| 12> C     -1.205074349366     1.950000000000    -0.695750000000
| 13> H     -2.140381785453     1.950000000000    -1.235750000000
| 14> C     -1.205074349366     1.950000000000     0.695750000000
| 15> H     -2.140381785453     1.950000000000     1.235750000000
| 16> C     -1.205074349366    -1.950000000000    -0.695750000000
| 17> H     -2.140381785453    -1.950000000000    -1.235750000000
| 18> C     -0.000000000000    -1.950000000000    -1.391500000000
| 19> H     -0.000000000000    -1.950000000000    -2.471500000000
| 20> C      1.205074349366    -1.950000000000    -0.695750000000
| 21> H      2.140381785453    -1.950000000000    -1.235750000000
| 22> C      1.205074349366    -1.950000000000     0.695750000000
| 23> H      2.140381785453    -1.950000000000     1.235750000000
| 24> C     -0.000000000000    -1.950000000000     1.391500000000
| 25> H     -0.000000000000    -1.950000000000     2.471500000000
| 26> C     -1.205074349366    -1.950000000000     0.695750000000
| 27> H     -2.140381785453    -1.950000000000     1.235750000000
| 28> *
| 29> 
| 30>                          ****END OF INPUT****
================================================================================

                       *****************************
                       * Geometry Optimization Run *
                       *****************************

Geometry optimization settings:
Update method            Update   .... BFGS
Choice of coordinates    CoordSys .... Redundant Internals
Initial Hessian          InHess   .... Almoef's Model

Convergence Tolerances:
Energy Change            TolE     ....  5.0000e-06 Eh
Max. Gradient            TolMAXG  ....  3.0000e-04 Eh/bohr
RMS Gradient             TolRMSG  ....  1.0000e-04 Eh/bohr
Max. Displacement        TolMAXD  ....  4.0000e-03 bohr
RMS Displacement         TolRMSD  ....  2.0000e-03 bohr

------------------------------------------------------------------------------
                        ORCA OPTIMIZATION COORDINATE SETUP
------------------------------------------------------------------------------

The optimization will be done in new redundant internal coordinates
Making redundant internal coordinates   ...  (new redundants) done
Evaluating the initial hessian          ...  (Almloef) done
Evaluating the coordinates              ...  done
Calculating the B-matrix                .... done
Calculating the G-matrix                .... done
Diagonalizing the G-matrix              .... done
The first mode is                       ....  624
The number of degrees of freedom        ....   66

    -----------------------------------------------------------------
                    Redundant Internal Coordinates


    -----------------------------------------------------------------
         Definition                    Initial Value    Approx d2E/dq
    -----------------------------------------------------------------
      1. B(H   1,C   0)                  1.0800         0.373575   
      2. B(C   2,C   0)                  1.3915         0.621363   
      3. B(H   3,C   2)                  1.0800         0.373575   
      4. B(C   4,C   2)                  1.3915         0.621363   
      5. B(H   5,C   4)                  1.0800         0.373575   
      6. B(C   6,C   4)                  1.3915         0.621363   
      7. B(H   7,C   6)                  1.0800         0.373575   
      8. B(C   8,C   6)                  1.3915         0.621363   
      9. B(H   9,C   8)                  1.0800         0.373575   
     10. B(C  10,C   8)                  1.3915         0.621363   
     11. B(C  10,C   0)                  1.3915         0.621363   
     12. B(H  11,C  10)                  1.0800         0.373575   
     13. B(C  12,C  10)                  4.1408         0.000026   
     14. B(C  12,C   8)                  3.9000         0.000062   
     15. B(C  12,C   4)                  4.5846         0.000005   
     16. B(C  12,C   6)                  4.1408         0.000026   
     17. B(C  12,C   2)                  4.7911         0.000002   
     18. B(C  12,H   9)                  4.0468         0.000007   
     19. B(C  12,C   0)                  4.5846         0.000005   
     20. B(C  12,H   7)                  4.4515         0.000002   
     21. B(C  12,H  11)                  4.4515         0.000002   
     22. B(H  13,H   7)                  4.6172         0.000000   
     23. B(H  13,C  10)                  4.4515         0.000002   
     24. B(H  13,H  11)                  4.6172         0.000000   
     25. B(H  13,C  12)                  1.0800         0.373575   
     26. B(H  13,C   6)                  4.4515         0.000002   
     27. B(H  13,C   8)                  4.0468         0.000007   
     28. B(H  13,H   9)                  3.9000         0.000002   
     29. B(C  14,C   2)                  4.5846         0.000005   
     30. B(C  14,C  12)                  1.3915         0.621363   
     31. B(C  14,H   9)                  4.4515         0.000002   
     32. B(C  14,C  10)                  4.5846         0.000005   
     33. B(C  14,H   5)                  4.4515         0.000002   
     34. B(C  14,C   0)                  4.7911         0.000002   
     35. B(C  14,C   8)                  4.1408         0.000026   
     36. B(C  14,H   7)                  4.0468         0.000007   
     37. B(C  14,C   4)                  4.1408         0.000026   
     38. B(C  14,C   6)                  3.9000         0.000062   
     39. B(H  15,C  14)                  1.0800         0.373575   
     40. B(H  15,C   4)                  4.4515         0.000002   
     41. B(H  15,H   9)                  4.6172         0.000000   
     42. B(H  15,C   8)                  4.4515         0.000002   
     43. B(H  15,H   7)                  3.9000         0.000002   
     44. B(H  15,C   6)                  4.0468         0.000007   
     45. B(H  15,H   5)                  4.6172         0.000000   
     46. B(C  16,C   4)                  3.9000         0.000062   
     47. B(C  16,C   0)                  4.5846         0.000005   
     48. B(C  16,C  10)                  4.7911         0.000002   
     49. B(C  16,H   3)                  4.4515         0.000002   
     50. B(C  16,C   8)                  4.5846         0.000005   
     51. B(C  16,C   2)                  4.1408         0.000026   
     52. B(C  16,H   7)                  4.4515         0.000002   
     53. B(C  16,C   6)                  4.1408         0.000026   
     54. B(C  16,C  14)                  1.3915         0.621363   
     55. B(C  16,H   5)                  4.0468         0.000007   
     56. B(H  17,C   4)                  4.0468         0.000007   
     57. B(H  17,H   3)                  4.6172         0.000000   
     58. B(H  17,C   2)                  4.4515         0.000002   
     59. B(H  17,H   7)                  4.6172         0.000000   
     60. B(H  17,C   6)                  4.4515         0.000002   
     61. B(H  17,C  16)                  1.0800         0.373575   
     62. B(H  17,H   5)                  3.9000         0.000002   
     63. B(C  18,C   4)                  4.1408         0.000026   
     64. B(C  18,C   0)                  4.1408         0.000026   
     65. B(C  18,H   3)                  4.0468         0.000007   
     66. B(C  18,C   8)                  4.7911         0.000002   
     67. B(C  18,C   2)                  3.9000         0.000062   
     68. B(C  18,C  10)                  4.5846         0.000005   
     69. B(C  18,C   6)                  4.5846         0.000005   
     70. B(C  18,C  16)                  1.3915         0.621363   
     71. B(C  18,H   1)                  4.4515         0.000002   
     72. B(C  18,H   5)                  4.4515         0.000002   
     73. B(H  19,C   4)                  4.4515         0.000002   
     74. B(H  19,C   0)                  4.4515         0.000002   
     75. B(H  19,H   3)                  3.9000         0.000002   
     76. B(H  19,C   2)                  4.0468         0.000007   
     77. B(H  19,C  18)                  1.0800         0.373575   
     78. B(H  19,H   1)                  4.6172         0.000000   
     79. B(H  19,H   5)                  4.6172         0.000000   
     80. B(C  20,C   4)                  4.5846         0.000005   
     81. B(C  20,C   0)                  3.9000         0.000062   
     82. B(C  20,H  11)                  4.4515         0.000002   
     83. B(C  20,H   3)                  4.4515         0.000002   
     84. B(C  20,C  10)                  4.1408         0.000026   
     85. B(C  20,C   2)                  4.1408         0.000026   
     86. B(C  20,C   8)                  4.5846         0.000005   
     87. B(C  20,C  18)                  1.3915         0.621363   
     88. B(C  20,C   6)                  4.7911         0.000002   
     89. B(C  20,H   1)                  4.0468         0.000007   
     90. B(H  21,C   0)                  4.0468         0.000007   
     91. B(H  21,H  11)                  4.6172         0.000000   
     92. B(H  21,H   3)                  4.6172         0.000000   
     93. B(H  21,C  10)                  4.4515         0.000002   
     94. B(H  21,C   2)                  4.4515         0.000002   
     95. B(H  21,C  20)                  1.0800         0.373575   
     96. B(H  21,H   1)                  3.9000         0.000002   
     97. B(C  22,C   4)                  4.7911         0.000002   
     98. B(C  22,H  11)                  4.0468         0.000007   
     99. B(C  22,C  10)                  3.9000         0.000062   
    100. B(C  22,H   9)                  4.4515         0.000002   
    101. B(C  22,C   2)                  4.5846         0.000005   
    102. B(C  22,C   8)                  4.1408         0.000026   
    103. B(C  22,C  20)                  1.3915         0.621363   
    104. B(C  22,C  12)                  1.3915         0.621363   
    105. B(C  22,C   6)                  4.5846         0.000005   
    106. B(C  22,H   1)                  4.4515         0.000002   
    107. B(C  22,C   0)                  4.1408         0.000026   
    108. B(H  23,H  11)                  3.9000         0.000002   
    109. B(H  23,C  10)                  4.0468         0.000007   
    110. B(H  23,H   9)                  4.6172         0.000000   
    111. B(H  23,C  22)                  1.0800         0.373575   
    112. B(H  23,C   8)                  4.4515         0.000002   
    113. B(H  23,H   1)                  4.6172         0.000000   
    114. B(H  23,C   0)                  4.4515         0.000002   
    115. A(C   2,C   0,C  22)           99.6729         0.124119   
    116. A(H   1,C   0,C   2)          120.0000         0.355245   
    117. A(H   1,C   0,C  16)          117.0824         0.107716   
    118. A(C  18,C   0,C  22)           33.8386         0.092571   
    119. A(C  12,C   0,C  14)           16.8838         0.090438   
    120. A(C   2,C   0,C  12)           90.0000         0.113281   
    121. A(H   1,C   0,C  10)          120.0000         0.355245   
    122. A(C  14,C   0,C  22)           30.2015         0.091079   
    123. A(C  14,C   0,C  16)           16.8838         0.090438   
    124. A(C  16,C   0,C  20)           31.7155         0.092016   
    125. A(C  14,C   0,C  18)           30.2015         0.091079   
    126. A(C  16,C   0,C  18)           17.4095         0.091469   
    127. A(C  12,C   0,C  22)           17.4095         0.091469   
    128. A(C  14,C   0,C  20)           35.5113         0.091540   
    129. A(H   1,C   0,C  12)          117.0824         0.107716   
    130. A(H   1,C   0,C  22)           99.6729         0.116070   
    131. A(C  10,C   0,C  16)           90.0000         0.113281   
    132. A(C  18,C   0,C  20)           19.6361         0.093362   
    133. A(C   2,C   0,C  14)           73.1162         0.109450   
    134. A(C  10,C   0,C  12)           62.9176         0.113281   
    135. A(H   1,C   0,C  18)           99.6729         0.116070   
    136. A(H   1,C   0,C  14)          125.5113         0.104763   
    137. A(C  10,C   0,C  20)           90.0000         0.131904   
    138. A(C  10,C   0,C  22)           70.3639         0.124119   
    139. A(C  20,C   0,C  22)           19.6361         0.093362   
    140. A(C  12,C   0,C  16)           30.4786         0.090707   
    141. A(C  12,C   0,C  18)           36.7553         0.091469   
    142. A(C   2,C   0,C  18)           70.3639         0.124119   
    143. A(C  10,C   0,C  14)           73.1162         0.109450   
    144. A(C  12,C   0,C  20)           31.7155         0.092016   
    145. A(C   2,C   0,C  10)          120.0000         0.434409   
    146. A(C   2,C   0,C  16)           62.9176         0.113281   
    147. A(H   1,C   0,C  20)           90.0000         0.122071   
    148. A(C   2,C   0,C  20)           90.0000         0.131904   
    149. A(C  16,C   0,C  22)           36.7553         0.091469   
    150. A(C  10,C   0,C  18)           99.6729         0.124119   
    151. A(H   3,C   2,C  16)           99.6729         0.116070   
    152. A(C  14,C   2,C  16)           17.4095         0.091469   
    153. A(C   0,C   2,C  18)           90.0000         0.131904   
    154. A(H   3,C   2,C  14)          117.0824         0.107716   
    155. A(H   3,C   2,C  20)           99.6729         0.116070   
    156. A(H   3,C   2,C  18)           90.0000         0.122071   
    157. A(C   4,C   2,C  18)           90.0000         0.131904   
    158. A(C  18,C   2,C  22)           31.7155         0.092016   
    159. A(C   4,C   2,C  16)           70.3639         0.124119   
    160. A(C   4,C   2,C  22)           90.0000         0.113281   
    161. A(H   3,C   2,C  12)          125.5113         0.104763   
    162. A(C  12,C   2,C  22)           16.8838         0.090438   
    163. A(C  16,C   2,C  18)           19.6361         0.093362   
    164. A(C  16,C   2,C  20)           33.8386         0.092571   
    165. A(C  18,C   2,C  20)           19.6361         0.093362   
    166. A(C  12,C   2,C  20)           30.2015         0.091079   
    167. A(C  12,C   2,C  16)           30.2015         0.091079   
    168. A(C  14,C   2,C  20)           36.7553         0.091469   
    169. A(C   0,C   2,C  12)           73.1162         0.109450   
    170. A(C  14,C   2,C  18)           31.7155         0.092016   
    171. A(C  14,C   2,C  22)           30.4786         0.090707   
    172. A(C   0,C   2,C  22)           62.9176         0.113281   
    173. A(C   0,C   2,C   4)          120.0000         0.434409   
    174. A(C   4,C   2,C  14)           62.9176         0.113281   
    175. A(C  16,C   2,C  22)           36.7553         0.091469   
    176. A(H   3,C   2,C   4)          120.0000         0.355245   
    177. A(C   0,C   2,C  14)           90.0000         0.113281   
    178. A(C   4,C   2,C  12)           73.1162         0.109450   
    179. A(C  20,C   2,C  22)           17.4095         0.091469   
    180. A(C   0,C   2,C  20)           70.3639         0.124119   
    181. A(C  12,C   2,C  14)           16.8838         0.090438   
    182. A(H   3,C   2,C  22)          117.0824         0.107716   
    183. A(C   4,C   2,C  20)           99.6729         0.124119   
    184. A(C  12,C   2,C  18)           35.5113         0.091540   
    185. A(C   0,C   2,C  16)           99.6729         0.124119   
    186. A(C   0,C   2,H   3)          120.0000         0.355245   
    187. A(C  14,C   4,C  20)           36.7553         0.091469   
    188. A(C  16,C   4,C  18)           19.6361         0.093362   
    189. A(H   5,C   4,C   6)          120.0000         0.355245   
    190. A(C   6,C   4,C  12)           62.9176         0.113281   
    191. A(C  12,C   4,C  16)           31.7155         0.092016   
    192. A(C   2,C   4,C  16)           90.0000         0.131904   
    193. A(C  12,C   4,C  20)           30.4786         0.090707   
    194. A(C   6,C   4,C  14)           70.3639         0.124119   
    195. A(H   5,C   4,C  18)           99.6729         0.116070   
    196. A(C   6,C   4,C  20)           90.0000         0.113281   
    197. A(C   2,C   4,C  12)           90.0000         0.113281   
    198. A(C   2,C   4,C   6)          120.0000         0.434409   
    199. A(C  16,C   4,C  20)           31.7155         0.092016   
    200. A(C   2,C   4,C  22)           73.1162         0.109450   
    201. A(H   5,C   4,C  14)           99.6729         0.116070   
    202. A(H   5,C   4,C  16)           90.0000         0.122071   
    203. A(C  12,C   4,C  22)           16.8838         0.090438   
    204. A(C  14,C   4,C  22)           30.2015         0.091079   
    205. A(C   6,C   4,C  16)           90.0000         0.131904   
    206. A(C   6,C   4,C  18)           99.6729         0.124119   
    207. A(C   2,C   4,C  14)           99.6729         0.124119   
    208. A(C  12,C   4,C  18)           36.7553         0.091469   
    209. A(C  18,C   4,C  22)           30.2015         0.091079   
    210. A(C   2,C   4,C  18)           70.3639         0.124119   
    211. A(C  12,C   4,C  14)           17.4095         0.091469   
    212. A(C  14,C   4,C  18)           33.8386         0.092571   
    213. A(H   5,C   4,C  12)          117.0824         0.107716   
    214. A(C   2,C   4,H   5)          120.0000         0.355245   
    215. A(C   6,C   4,C  22)           73.1162         0.109450   
    216. A(C  14,C   4,C  16)           19.6361         0.093362   
    217. A(H   5,C   4,C  20)          117.0824         0.107716   
    218. A(C   2,C   4,C  20)           62.9176         0.113281   
    219. A(H   5,C   4,C  22)          125.5113         0.104763   
    220. A(C  16,C   4,C  22)           35.5113         0.091540   
    221. A(C  20,C   4,C  22)           16.8838         0.090438   
    222. A(C  18,C   4,C  20)           17.4095         0.091469   
    223. A(C   8,C   6,C  20)           73.1162         0.109450   
    224. A(C  16,C   6,C  18)           17.4095         0.091469   
    225. A(C  14,C   6,C  18)           31.7155         0.092016   
    226. A(C  12,C   6,C  18)           36.7553         0.091469   
    227. A(C   8,C   6,C  18)           90.0000         0.113281   
    228. A(C   4,C   6,C  18)           62.9176         0.113281   
    229. A(C  12,C   6,C  16)           33.8386         0.092571   
    230. A(C   8,C   6,C  16)           99.6729         0.124119   
    231. A(H   7,C   6,C  16)           99.6729         0.116070   
    232. A(C   4,C   6,C  16)           70.3639         0.124119   
    233. A(C  12,C   6,C  14)           19.6361         0.093362   
    234. A(C   8,C   6,C  14)           90.0000         0.131904   
    235. A(H   7,C   6,C  14)           90.0000         0.122071   
    236. A(C   4,C   6,C  14)           90.0000         0.131904   
    237. A(H   7,C   6,C  12)           99.6729         0.116070   
    238. A(C   4,C   6,C  20)           73.1162         0.109450   
    239. A(C   8,C   6,C  12)           70.3639         0.124119   
    240. A(C   4,C   6,C  22)           90.0000         0.113281   
    241. A(C  14,C   6,C  22)           31.7155         0.092016   
    242. A(C  20,C   6,C  22)           16.8838         0.090438   
    243. A(C  18,C   6,C  22)           30.4786         0.090707   
    244. A(C   4,C   6,C  12)           99.6729         0.124119   
    245. A(C  14,C   6,C  16)           19.6361         0.093362   
    246. A(H   7,C   6,C   8)          120.0000         0.355245   
    247. A(C   4,C   6,C   8)          120.0000         0.434409   
    248. A(H   7,C   6,C  18)          117.0824         0.107716   
    249. A(H   7,C   6,C  20)          125.5113         0.104763   
    250. A(C   8,C   6,C  22)           62.9176         0.113281   
    251. A(C  16,C   6,C  22)           36.7553         0.091469   
    252. A(C  12,C   6,C  22)           17.4095         0.091469   
    253. A(C   4,C   6,H   7)          120.0000         0.355245   
    254. A(H   7,C   6,C  22)          117.0824         0.107716   
    255. A(C  18,C   6,C  20)           16.8838         0.090438   
    256. A(C  16,C   6,C  20)           30.2015         0.091079   
    257. A(C  14,C   6,C  20)           35.5113         0.091540   
    258. A(C  12,C   6,C  20)           30.2015         0.091079   
    259. A(H   9,C   8,C  10)          120.0000         0.355245   
    260. A(C  16,C   8,C  20)           30.4786         0.090707   
    261. A(C  10,C   8,C  22)           70.3639         0.124119   
    262. A(C   6,C   8,C  10)          120.0000         0.434409   
    263. A(C   6,C   8,C  22)           99.6729         0.124119   
    264. A(C   6,C   8,C  16)           62.9176         0.113281   
    265. A(H   9,C   8,C  16)          117.0824         0.107716   
    266. A(C   6,C   8,H   9)          120.0000         0.355245   
    267. A(C  12,C   8,C  14)           19.6361         0.093362   
    268. A(H   9,C   8,C  18)          125.5113         0.104763   
    269. A(C  20,C   8,C  22)           17.4095         0.091469   
    270. A(C   6,C   8,C  20)           90.0000         0.113281   
    271. A(C  14,C   8,C  22)           33.8386         0.092571   
    272. A(C  12,C   8,C  22)           19.6361         0.093362   
    273. A(H   9,C   8,C  22)           99.6729         0.116070   
    274. A(C  18,C   8,C  20)           16.8838         0.090438   
    275. A(H   9,C   8,C  12)           90.0000         0.122071   
    276. A(C  14,C   8,C  20)           36.7553         0.091469   
    277. A(C  12,C   8,C  20)           31.7155         0.092016   
    278. A(H   9,C   8,C  20)          117.0824         0.107716   
    279. A(C  16,C   8,C  18)           16.8838         0.090438   
    280. A(C  12,C   8,C  18)           35.5113         0.091540   
    281. A(C  10,C   8,C  18)           73.1162         0.109450   
    282. A(C   6,C   8,C  18)           73.1162         0.109450   
    283. A(C  14,C   8,C  16)           17.4095         0.091469   
    284. A(C  12,C   8,C  16)           31.7155         0.092016   
    285. A(C  14,C   8,C  18)           30.2015         0.091079   
    286. A(C  10,C   8,C  16)           90.0000         0.113281   
    287. A(C  16,C   8,C  22)           36.7553         0.091469   
    288. A(C  18,C   8,C  22)           30.2015         0.091079   
    289. A(C  10,C   8,C  20)           62.9176         0.113281   
    290. A(C  10,C   8,C  14)           99.6729         0.124119   
    291. A(H   9,C   8,C  14)           99.6729         0.116070   
    292. A(C   6,C   8,C  14)           70.3639         0.124119   
    293. A(C  10,C   8,C  12)           90.0000         0.131904   
    294. A(C   6,C   8,C  12)           90.0000         0.131904   
    295. A(H  11,C  10,C  14)          117.0824         0.107716   
    296. A(C   0,C  10,C  14)           90.0000         0.113281   
    297. A(C  14,C  10,C  18)           30.4786         0.090707   
    298. A(C   8,C  10,C  20)           99.6729         0.124119   
    299. A(C   8,C  10,C  22)           90.0000         0.131904   
    300. A(C   0,C  10,C  22)           90.0000         0.131904   
    301. A(C  18,C  10,C  20)           17.4095         0.091469   
    302. A(C  16,C  10,C  18)           16.8838         0.090438   
    303. A(C  12,C  10,C  14)           17.4095         0.091469   
    304. A(C   0,C  10,C  16)           73.1162         0.109450   
    305. A(H  11,C  10,C  20)           99.6729         0.116070   
    306. A(C   0,C  10,C  20)           70.3639         0.124119   
    307. A(C  12,C  10,C  18)           36.7553         0.091469   
    308. A(H  11,C  10,C  18)          117.0824         0.107716   
    309. A(C   0,C  10,C  18)           62.9176         0.113281   
    310. A(C  12,C  10,C  16)           30.2015         0.091079   
    311. A(C   8,C  10,C  14)           62.9176         0.113281   
    312. A(H  11,C  10,C  12)           99.6729         0.116070   
    313. A(C   8,C  10,C  12)           70.3639         0.124119   
    314. A(C   0,C  10,C  12)           99.6729         0.124119   
    315. A(C  16,C  10,C  20)           30.2015         0.091079   
    316. A(H  11,C  10,C  22)           90.0000         0.122071   
    317. A(C   8,C  10,C  16)           73.1162         0.109450   
    318. A(H  11,C  10,C  16)          125.5113         0.104763   
    319. A(C  12,C  10,C  20)           33.8386         0.092571   
    320. A(C  14,C  10,C  20)           36.7553         0.091469   
    321. A(C   8,C  10,C  18)           90.0000         0.113281   
    322. A(C  14,C  10,C  16)           16.8838         0.090438   
    323. A(C   8,C  10,H  11)          120.0000         0.355245   
    324. A(C  14,C  10,C  22)           31.7155         0.092016   
    325. A(C  12,C  10,C  22)           19.6361         0.093362   
    326. A(C   0,C  10,H  11)          120.0000         0.355245   
    327. A(C  16,C  10,C  22)           35.5113         0.091540   
    328. A(C   0,C  10,C   8)          120.0000         0.434409   
    329. A(C  20,C  10,C  22)           19.6361         0.093362   
    330. A(C  18,C  10,C  22)           31.7155         0.092016   
    331. A(C  14,C  12,C  22)          120.0000         0.434409   
    332. A(H  13,C  12,C  22)          120.0000         0.355245   
    333. A(C   0,C  12,C   4)           30.4786         0.090707   
    334. A(C   4,C  12,C   6)           17.4095         0.091469   
    335. A(C   2,C  12,C   6)           30.2015         0.091079   
    336. A(C   0,C  12,C   6)           36.7553         0.091469   
    337. A(C   2,C  12,C  22)           73.1162         0.109450   
    338. A(C   0,C  12,C   2)           16.8838         0.090438   
    339. A(C   2,C  12,C  14)           73.1162         0.109450   
    340. A(C   2,C  12,H  13)          125.5113         0.104763   
    341. A(C   8,C  12,C  10)           19.6361         0.093362   
    342. A(C   6,C  12,C  10)           33.8386         0.092571   
    343. A(C   4,C  12,C  10)           36.7553         0.091469   
    344. A(C   0,C  12,C  10)           17.4095         0.091469   
    345. A(C  10,C  12,C  14)           99.6729         0.124119   
    346. A(C  10,C  12,H  13)           99.6729         0.116070   
    347. A(C   0,C  12,C  22)           62.9176         0.113281   
    348. A(C   0,C  12,C  14)           90.0000         0.113281   
    349. A(C   0,C  12,H  13)          117.0824         0.107716   
    350. A(C   2,C  12,C  10)           30.2015         0.091079   
    351. A(H  13,C  12,C  14)          120.0000         0.355245   
    352. A(C  10,C  12,C  22)           70.3639         0.124119   
    353. A(C   2,C  12,C   4)           16.8838         0.090438   
    354. A(C   6,C  12,H  13)           99.6729         0.116070   
    355. A(C   4,C  12,C  22)           90.0000         0.113281   
    356. A(C   4,C  12,C  14)           62.9176         0.113281   
    357. A(C   4,C  12,H  13)          117.0824         0.107716   
    358. A(C   4,C  12,C   8)           31.7155         0.092016   
    359. A(C   6,C  12,C   8)           19.6361         0.093362   
    360. A(C   2,C  12,C   8)           35.5113         0.091540   
    361. A(C   6,C  12,C  14)           70.3639         0.124119   
    362. A(C   0,C  12,C   8)           31.7155         0.092016   
    363. A(C   8,C  12,C  22)           90.0000         0.131904   
    364. A(C   8,C  12,C  14)           90.0000         0.131904   
    365. A(C   8,C  12,H  13)           90.0000         0.122071   
    366. A(C   6,C  12,C  22)           99.6729         0.124119   
    367. A(C   4,C  14,C   6)           19.6361         0.093362   
    368. A(C   2,C  14,C   6)           31.7155         0.092016   
    369. A(C   0,C  14,C   6)           35.5113         0.091540   
    370. A(C   6,C  14,C  16)           90.0000         0.131904   
    371. A(C   6,C  14,H  15)           90.0000         0.122071   
    372. A(C   6,C  14,C  12)           90.0000         0.131904   
    373. A(C   0,C  14,C   2)           16.8838         0.090438   
    374. A(C   2,C  14,C  16)           62.9176         0.113281   
    375. A(C   4,C  14,C  10)           36.7553         0.091469   
    376. A(C   2,C  14,C  12)           90.0000         0.113281   
    377. A(C   0,C  14,C  16)           73.1162         0.109450   
    378. A(C   0,C  14,H  15)          125.5113         0.104763   
    379. A(C   0,C  14,C  12)           73.1162         0.109450   
    380. A(C   8,C  14,C  10)           17.4095         0.091469   
    381. A(C   6,C  14,C  10)           31.7155         0.092016   
    382. A(C   2,C  14,C  10)           30.4786         0.090707   
    383. A(C   0,C  14,C  10)           16.8838         0.090438   
    384. A(C  10,C  14,C  16)           90.0000         0.113281   
    385. A(C  10,C  14,H  15)          117.0824         0.107716   
    386. A(C  10,C  14,C  12)           62.9176         0.113281   
    387. A(H  15,C  14,C  16)          120.0000         0.355245   
    388. A(C  12,C  14,C  16)          120.0000         0.434409   
    389. A(C  12,C  14,H  15)          120.0000         0.355245   
    390. A(C   2,C  14,C   4)           17.4095         0.091469   
    391. A(C   0,C  14,C   4)           30.2015         0.091079   
    392. A(C   4,C  14,C  16)           70.3639         0.124119   
    393. A(C   4,C  14,H  15)           99.6729         0.116070   
    394. A(C   4,C  14,C  12)           99.6729         0.124119   
    395. A(C   6,C  14,C   8)           19.6361         0.093362   
    396. A(C   4,C  14,C   8)           33.8386         0.092571   
    397. A(C   2,C  14,C   8)           36.7553         0.091469   
    398. A(C   0,C  14,C   8)           30.2015         0.091079   
    399. A(C   8,C  14,C  16)           99.6729         0.124119   
    400. A(C   8,C  14,H  15)           99.6729         0.116070   
    401. A(C   8,C  14,C  12)           70.3639         0.124119   
    402. A(C   2,C  14,H  15)          117.0824         0.107716   
    403. A(C   4,C  16,C   6)           19.6361         0.093362   
    404. A(C   2,C  16,C   6)           33.8386         0.092571   
    405. A(C   0,C  16,C   6)           36.7553         0.091469   
    406. A(C   6,C  16,C  18)           99.6729         0.124119   
    407. A(C   6,C  16,H  17)           99.6729         0.116070   
    408. A(C   6,C  16,C  14)           70.3639         0.124119   
    409. A(C   0,C  16,C  18)           62.9176         0.113281   
    410. A(C   0,C  16,C   2)           17.4095         0.091469   
    411. A(C   2,C  16,C  18)           70.3639         0.124119   
    412. A(C   0,C  16,H  17)          117.0824         0.107716   
    413. A(C   2,C  16,H  17)           99.6729         0.116070   
    414. A(C   0,C  16,C  14)           90.0000         0.113281   
    415. A(H  17,C  16,C  18)          120.0000         0.355245   
    416. A(C   8,C  16,C  10)           16.8838         0.090438   
    417. A(C   6,C  16,C  10)           30.2015         0.091079   
    418. A(C   2,C  16,C  10)           30.2015         0.091079   
    419. A(C  10,C  16,C  18)           73.1162         0.109450   
    420. A(C   0,C  16,C  10)           16.8838         0.090438   
    421. A(C  10,C  16,H  17)          125.5113         0.104763   
    422. A(C  10,C  16,C  14)           73.1162         0.109450   
    423. A(C  14,C  16,H  17)          120.0000         0.355245   
    424. A(C   2,C  16,C   4)           19.6361         0.093362   
    425. A(C   0,C  16,C   4)           31.7155         0.092016   
    426. A(C   4,C  16,C  10)           35.5113         0.091540   
    427. A(C   4,C  16,C  18)           90.0000         0.131904   
    428. A(C   4,C  16,H  17)           90.0000         0.122071   
    429. A(C   4,C  16,C  14)           90.0000         0.131904   
    430. A(C   6,C  16,C   8)           17.4095         0.091469   
    431. A(C   4,C  16,C   8)           31.7155         0.092016   
    432. A(C   2,C  16,C   8)           36.7553         0.091469   
    433. A(C   0,C  16,C   8)           30.4786         0.090707   
    434. A(C   8,C  16,C  18)           90.0000         0.113281   
    435. A(C   8,C  16,H  17)          117.0824         0.107716   
    436. A(C   8,C  16,C  14)           62.9176         0.113281   
    437. A(C   2,C  16,C  14)           99.6729         0.124119   
    438. A(C  14,C  16,C  18)          120.0000         0.434409   
    439. A(C   0,C  18,C  20)           70.3639         0.124119   
    440. A(C   0,C  18,H  19)           99.6729         0.116070   
    441. A(C   4,C  18,C   6)           17.4095         0.091469   
    442. A(C   2,C  18,C   6)           31.7155         0.092016   
    443. A(C   0,C  18,C   6)           36.7553         0.091469   
    444. A(C   0,C  18,C  16)           99.6729         0.124119   
    445. A(C   6,C  18,C  20)           90.0000         0.113281   
    446. A(C   6,C  18,H  19)          117.0824         0.107716   
    447. A(C   6,C  18,C  16)           62.9176         0.113281   
    448. A(C   0,C  18,C   2)           19.6361         0.093362   
    449. A(C   2,C  18,C  20)           90.0000         0.131904   
    450. A(C   2,C  18,H  19)           90.0000         0.122071   
    451. A(C   2,C  18,C  16)           90.0000         0.131904   
    452. A(H  19,C  18,C  20)          120.0000         0.355245   
    453. A(C  16,C  18,C  20)          120.0000         0.434409   
    454. A(C  16,C  18,H  19)          120.0000         0.355245   
    455. A(C   8,C  18,C  10)           16.8838         0.090438   
    456. A(C   6,C  18,C  10)           30.4786         0.090707   
    457. A(C   4,C  18,C  10)           36.7553         0.091469   
    458. A(C   0,C  18,C  10)           17.4095         0.091469   
    459. A(C  10,C  18,C  20)           62.9176         0.113281   
    460. A(C  10,C  18,H  19)          117.0824         0.107716   
    461. A(C  10,C  18,C  16)           90.0000         0.113281   
    462. A(C   2,C  18,C   4)           19.6361         0.093362   
    463. A(C   0,C  18,C   4)           33.8386         0.092571   
    464. A(C   4,C  18,C  20)           99.6729         0.124119   
    465. A(C   4,C  18,H  19)           99.6729         0.116070   
    466. A(C   4,C  18,C  16)           70.3639         0.124119   
    467. A(C   6,C  18,C   8)           16.8838         0.090438   
    468. A(C   4,C  18,C   8)           30.2015         0.091079   
    469. A(C   2,C  18,C   8)           35.5113         0.091540   
    470. A(C   0,C  18,C   8)           30.2015         0.091079   
    471. A(C   8,C  18,C  20)           73.1162         0.109450   
    472. A(C   8,C  18,H  19)          125.5113         0.104763   
    473. A(C   8,C  18,C  16)           73.1162         0.109450   
    474. A(C   2,C  18,C  10)           31.7155         0.092016   
    475. A(C   6,C  20,C  22)           73.1162         0.109450   
    476. A(C   6,C  20,H  21)          125.5113         0.104763   
    477. A(C   2,C  20,C  22)           99.6729         0.124119   
    478. A(C   6,C  20,C  18)           73.1162         0.109450   
    479. A(C   2,C  20,H  21)           99.6729         0.116070   
    480. A(C   2,C  20,C  18)           70.3639         0.124119   
    481. A(C  18,C  20,H  21)          120.0000         0.355245   
    482. A(C   8,C  20,C  10)           17.4095         0.091469   
    483. A(C   4,C  20,C  10)           36.7553         0.091469   
    484. A(C   2,C  20,C  10)           33.8386         0.092571   
    485. A(C   0,C  20,C  10)           19.6361         0.093362   
    486. A(C  10,C  20,C  22)           70.3639         0.124119   
    487. A(C  10,C  20,H  21)           99.6729         0.116070   
    488. A(C  10,C  20,C  18)           99.6729         0.124119   
    489. A(C   2,C  20,C   4)           17.4095         0.091469   
    490. A(C   0,C  20,C   4)           31.7155         0.092016   
    491. A(C   4,C  20,C  22)           90.0000         0.113281   
    492. A(C   4,C  20,H  21)          117.0824         0.107716   
    493. A(C   4,C  20,C  18)           62.9176         0.113281   
    494. A(C   6,C  20,C   8)           16.8838         0.090438   
    495. A(C   4,C  20,C   8)           30.4786         0.090707   
    496. A(C   2,C  20,C   8)           36.7553         0.091469   
    497. A(C   0,C  20,C   8)           31.7155         0.092016   
    498. A(C   8,C  20,C  22)           62.9176         0.113281   
    499. A(C   8,C  20,H  21)          117.0824         0.107716   
    500. A(C   8,C  20,C  18)           90.0000         0.113281   
    501. A(C   6,C  20,C  10)           30.2015         0.091079   
    502. A(C   0,C  20,C  22)           90.0000         0.131904   
    503. A(C   0,C  20,H  21)           90.0000         0.122071   
    504. A(C   0,C  20,C  18)           90.0000         0.131904   
    505. A(H  21,C  20,C  22)          120.0000         0.355245   
    506. A(C   4,C  20,C   6)           16.8838         0.090438   
    507. A(C   2,C  20,C   6)           30.2015         0.091079   
    508. A(C   0,C  20,C   6)           35.5113         0.091540   
    509. A(C   0,C  20,C   2)           19.6361         0.093362   
    510. A(C  18,C  20,C  22)          120.0000         0.434409   
    511. A(C   6,C  22,C  10)           31.7155         0.092016   
    512. A(C   4,C  22,C  10)           35.5113         0.091540   
    513. A(C   2,C  22,C  10)           31.7155         0.092016   
    514. A(C   0,C  22,C  10)           19.6361         0.093362   
    515. A(C  10,C  22,H  23)           90.0000         0.122071   
    516. A(C  10,C  22,C  20)           90.0000         0.131904   
    517. A(C  10,C  22,C  12)           90.0000         0.131904   
    518. A(C   2,C  22,C   4)           16.8838         0.090438   
    519. A(C   0,C  22,C   4)           30.2015         0.091079   
    520. A(C   4,C  22,H  23)          125.5113         0.104763   
    521. A(C   4,C  22,C  20)           73.1162         0.109450   
    522. A(C   4,C  22,C  12)           73.1162         0.109450   
    523. A(C   6,C  22,C   8)           17.4095         0.091469   
    524. A(C   4,C  22,C   8)           30.2015         0.091079   
    525. A(C   2,C  22,C   8)           36.7553         0.091469   
    526. A(C   0,C  22,C   8)           33.8386         0.092571   
    527. A(C   8,C  22,H  23)           99.6729         0.116070   
    528. A(C   8,C  22,C  20)           99.6729         0.124119   
    529. A(C   8,C  22,C  12)           70.3639         0.124119   
    530. A(C   0,C  22,H  23)           99.6729         0.116070   
    531. A(C   0,C  22,C  20)           70.3639         0.124119   
    532. A(C   0,C  22,C  12)           99.6729         0.124119   
    533. A(C  20,C  22,H  23)          120.0000         0.355245   
    534. A(C  12,C  22,H  23)          120.0000         0.355245   
    535. A(C   0,C  22,C   2)           17.4095         0.091469   
    536. A(C   2,C  22,H  23)          117.0824         0.107716   
    537. A(C   2,C  22,C  20)           62.9176         0.113281   
    538. A(C   2,C  22,C  12)           90.0000         0.113281   
    539. A(C  12,C  22,C  20)          120.0000         0.434409   
    540. A(C   8,C  22,C  10)           19.6361         0.093362   
    541. A(C   4,C  22,C   6)           16.8838         0.090438   
    542. A(C   2,C  22,C   6)           30.4786         0.090707   
    543. A(C   0,C  22,C   6)           36.7553         0.091469   
    544. A(C   6,C  22,H  23)          117.0824         0.107716   
    545. A(C   6,C  22,C  20)           90.0000         0.113281   
    546. A(C   6,C  22,C  12)           62.9176         0.113281   
    547. D(H   3,C   2,C   0,H   1)      0.0000         0.057088   
    548. D(C   4,C   2,C   0,H   1)    180.0000         0.057088   
    549. D(H   3,C   2,C   0,C  10)    180.0000         0.057088   
    550. D(C   6,C   4,C   2,C   0)      0.0000         0.057088   
    551. D(H   5,C   4,C   2,C   0)    180.0000         0.057088   
    552. D(H   5,C   4,C   2,H   3)      0.0000         0.057088   
    553. D(H   7,C   6,C   4,C   2)    180.0000         0.057088   
    554. D(H   7,C   6,C   4,H   5)      0.0000         0.057088   
    555. D(C   8,C   6,C   4,C   2)      0.0000         0.057088   
    556. D(H   9,C   8,C   6,C   4)    180.0000         0.057088   
    557. D(H   9,C   8,C   6,H   7)      0.0000         0.057088   
    558. D(C  10,C   8,C   6,C   4)      0.0000         0.057088   
    559. D(C   8,C  10,C   0,H   1)    180.0000         0.057088   
    560. D(H  11,C  10,C   0,H   1)      0.0000         0.057088   
    561. D(C   0,C  10,C   8,H   9)    180.0000         0.057088   
    562. D(H  11,C  10,C   8,C   6)    180.0000         0.057088   
    563. D(C   0,C  10,C   8,C   6)      0.0000         0.057088   
    564. D(C   8,C  10,C   0,C   2)      0.0000         0.057088   
    565. D(C  14,C  12,C   6,C   4)    -61.4638         0.001500   
    566. D(H  13,C  12,C   6,H   7)    -57.0725         0.001500   
    567. D(H  13,C  12,C   2,C   0)     64.8282         0.001500   
    568. D(H  13,C  12,C   2,H   3)    180.0000         0.001500   
    569. D(C  14,C  12,C   2,C   0)    180.0000         0.001500   
    570. D(H  13,C  12,C   4,H   5)   -111.6704         0.001500   
    571. D(H  13,C  12,C   4,C   2)    124.1648         0.001500   
    572. D(C  14,C  12,C   4,C   2)   -124.1648         0.001500   
    573. D(H  13,C  12,C   6,C   4)   -180.0000         0.001500   
    574. D(C  14,C  12,C   0,H   1)   -124.1648         0.001500   
    575. D(H  13,C  12,C   0,C   2)   -124.1648         0.001500   
    576. D(H  13,C  12,C   8,C   6)   -120.0000         0.001500   
    577. D(C  14,C  12,C   8,C   6)      0.0000         0.001500   
    578. D(C  14,C  12,C  10,C   0)    -57.0725         0.001500   
    579. D(H  13,C  12,C  10,C   8)    -61.4638         0.001500   
    580. D(H  13,C  12,C  10,C   0)   -180.0000         0.001500   
    581. D(H  13,C  12,C   0,H   1)    111.6704         0.001500   
    582. D(H  13,C  12,C   8,H   9)      0.0000         0.001500   
    583. D(C  12,C  14,C  10,C   8)   -111.6704         0.001500   
    584. D(H  15,C  14,C  12,C  22)    180.0000         0.057088   
    585. D(H  15,C  14,C  10,C   0)   -124.1648         0.001500   
    586. D(C  16,C  14,C  12,H  13)    180.0000         0.057088   
    587. D(C  12,C  14,C  10,C   0)    124.1648         0.001500   
    588. D(H  15,C  14,C   8,C   6)    -61.4638         0.001500   
    589. D(C  12,C  14,C   8,H   9)    -61.4638         0.001500   
    590. D(C  12,C  14,C   8,C   6)    180.0000         0.001500   
    591. D(H  15,C  14,C   6,C   4)   -120.0000         0.001500   
    592. D(C  12,C  14,C   6,C   4)    120.0000         0.001500   
    593. D(C  12,C  14,C   4,H   5)   -180.0000         0.001500   
    594. D(H  15,C  14,C   4,C   2)    180.0000         0.001500   
    595. D(C  12,C  14,C   4,C   2)     57.0725         0.001500   
    596. D(H  15,C  14,C   2,C   0)    124.1648         0.001500   
    597. D(C  12,C  14,C   6,H   7)   -120.0000         0.001500   
    598. D(C  12,C  14,C   2,H   3)    124.1648         0.001500   
    599. D(C  12,C  14,C   2,C   0)      0.0000         0.001500   
    600. D(H  15,C  14,C  12,H  13)      0.0000         0.057088   
    601. D(C  12,C  14,C   0,C   2)    180.0000         0.001500   
    602. D(C  12,C  14,C   0,H   1)     64.8282         0.001500   
    603. D(H  15,C  14,C   0,H   1)    180.0000         0.001500   
    604. D(C  14,C  16,C   2,H   3)    180.0000         0.001500   
    605. D(C  14,C  16,C   2,C   0)     57.0725         0.001500   
    606. D(H  17,C  16,C   0,H   1)   -111.6704         0.001500   
    607. D(C  14,C  16,C   0,C   2)   -124.1648         0.001500   
    608. D(H  17,C  16,C   2,C   0)    180.0000         0.001500   
    609. D(C  14,C  16,C   0,H   1)    124.1648         0.001500   
    610. D(C  18,C  16,C  14,C  12)      0.0000         0.057088   
    611. D(H  17,C  16,C  14,H  15)      0.0000         0.057088   
    612. D(H  17,C  16,C  14,C  12)    180.0000         0.057088   
    613. D(C  14,C  16,C  10,C   8)    -50.3437         0.001500   
    614. D(C  14,C  16,C  10,C   0)    180.0000         0.001500   
    615. D(H  17,C  16,C   8,C   6)     -0.0000         0.001500   
    616. D(C  14,C  16,C   6,C   4)    180.0000         0.001500   
    617. D(H  17,C  16,C   6,C   4)    -61.4638         0.001500   
    618. D(C  14,C  16,C   6,H   7)    -61.4638         0.001500   
    619. D(C  14,C  16,C   8,H   9)     -0.0000         0.001500   
    620. D(H  17,C  16,C  10,C   0)    -64.8282         0.001500   
    621. D(H  17,C  16,C   4,C   2)   -120.0000         0.001500   
    622. D(C  14,C  16,C   4,H   5)   -120.0000         0.001500   
    623. D(C  14,C  16,C   4,C   2)    120.0000         0.001500   
    624. D(C  14,C  16,C   8,C   6)   -111.6704         0.001500   
    625. D(C  20,C  18,C  16,C  14)      0.0000         0.057088   
    626. D(H  19,C  18,C  16,H  17)      0.0000         0.057088   
    627. D(H  19,C  18,C  16,C  14)    180.0000         0.057088   
    628. D(H  19,C  18,C  10,C   0)      0.0000         0.001500   
    629. D(C  16,C  18,C  10,C   0)   -124.1648         0.001500   
    630. D(H  19,C  18,C   8,C   6)     64.8282         0.001500   
    631. D(C  16,C  18,C   8,H   9)     64.8282         0.001500   
    632. D(C  16,C  18,C   8,C   6)    -50.3437         0.001500   
    633. D(H  19,C  18,C   6,C   4)      0.0000         0.001500   
    634. D(C  16,C  18,C   6,H   7)      0.0000         0.001500   
    635. D(C  16,C  18,C   6,C   4)   -111.6704         0.001500   
    636. D(H  19,C  18,C   4,C   2)    -61.4638         0.001500   
    637. D(C  16,C  18,C   4,H   5)    -61.4638         0.001500   
    638. D(C  16,C  18,C   4,C   2)    180.0000         0.001500   
    639. D(H  19,C  18,C   2,C   0)   -120.0000         0.001500   
    640. D(C  16,C  18,C  10,C   8)      0.0000         0.001500   
    641. D(C  16,C  18,C   2,H   3)   -120.0000         0.001500   
    642. D(C  16,C  18,C   2,C   0)    120.0000         0.001500   
    643. D(H  19,C  18,C   0,H   1)    -57.0725         0.001500   
    644. D(C  16,C  18,C   0,C   2)    -61.4638         0.001500   
    645. D(C  16,C  18,C   0,H   1)    180.0000         0.001500   
    646. D(C  22,C  20,C  18,C  16)      0.0000         0.057088   
    647. D(H  21,C  20,C  18,C  16)    180.0000         0.057088   
    648. D(H  21,C  20,C  10,C   0)     61.4638         0.001500   
    649. D(C  18,C  20,C  10,C   8)     57.0725         0.001500   
    650. D(C  18,C  20,C  10,C   0)    -61.4638         0.001500   
    651. D(H  21,C  20,C   8,C   6)    124.1648         0.001500   
    652. D(C  18,C  20,C   8,H   9)    124.1648         0.001500   
    653. D(C  18,C  20,C   8,C   6)      0.0000         0.001500   
    654. D(H  21,C  20,C   6,C   4)     64.8282         0.001500   
    655. D(C  18,C  20,C   6,H   7)     64.8282         0.001500   
    656. D(C  18,C  20,C   6,C   4)    -50.3437         0.001500   
    657. D(H  21,C  20,C   4,C   2)      0.0000         0.001500   
    658. D(C  18,C  20,C   4,H   5)      0.0000         0.001500   
    659. D(C  18,C  20,C   4,C   2)   -111.6704         0.001500   
    660. D(H  21,C  20,C   2,C   0)    -61.4638         0.001500   
    661. D(C  18,C  20,C   2,H   3)    -61.4638         0.001500   
    662. D(C  18,C  20,C   2,C   0)    180.0000         0.001500   
    663. D(H  21,C  20,C   0,H   1)      0.0000         0.001500   
    664. D(H  21,C  20,C  18,H  19)      0.0000         0.057088   
    665. D(C  18,C  20,C   0,C   2)      0.0000         0.001500   
    666. D(C  18,C  20,C   0,H   1)   -120.0000         0.001500   
    667. D(C  20,C  22,C   2,C   0)   -111.6704         0.001500   
    668. D(C  12,C  22,C   2,H   3)   -124.1648         0.001500   
    669. D(C  12,C  22,C   2,C   0)    124.1648         0.001500   
    670. D(C  20,C  22,C   0,H   1)    -61.4638         0.001500   
    671. D(C  12,C  22,C   0,C   2)    -57.0725         0.001500   
    672. D(C  12,C  22,C   4,C   2)    180.0000         0.001500   
    673. D(C  12,C  22,C   0,H   1)    180.0000         0.001500   
    674. D(H  23,C  22,C  20,C  18)    180.0000         0.057088   
    675. D(C  12,C  22,C  20,C  18)      0.0000         0.057088   
    676. D(H  23,C  22,C  12,H  13)      0.0000         0.057088   
    677. D(C  20,C  22,C  12,C  14)      0.0000         0.057088   
    678. D(C  20,C  22,C  10,C   0)      0.0000         0.001500   
    679. D(C  12,C  22,C  10,C   8)      0.0000         0.001500   
    680. D(C  12,C  22,C  10,C   0)   -120.0000         0.001500   
    681. D(C  20,C  22,C   8,C   6)     57.0725         0.001500   
    682. D(C  12,C  22,C   8,H   9)     61.4638         0.001500   
    683. D(C  12,C  22,C   8,C   6)    -61.4638         0.001500   
    684. D(C  20,C  22,C  12,H  13)    180.0000         0.057088   
    685. D(C  20,C  22,C   6,C   4)      0.0000         0.001500   
    686. D(C  12,C  22,C   6,H   7)      0.0000         0.001500   
    687. D(C  12,C  22,C   6,C   4)   -124.1648         0.001500   
    688. D(C  12,C  22,C  20,H  21)    180.0000         0.057088   
    689. D(C  20,C  22,C   4,C   2)    -50.3437         0.001500   
    690. D(C  12,C  22,C   4,H   5)    -64.8282         0.001500   
    -----------------------------------------------------------------

Number of atoms                         .... 24
Number of degrees of freedom            .... 690

         *************************************************************
         *                GEOMETRY OPTIMIZATION CYCLE   1            *
         *************************************************************
---------------------------------
CARTESIAN COORDINATES (ANGSTROEM)
---------------------------------
  C      0.000000    1.950000    1.391500
  H      0.000000    1.950000    2.471500
  C      1.205074    1.950000    0.695750
  H      2.140382    1.950000    1.235750
  C      1.205074    1.950000   -0.695750
  H      2.140382    1.950000   -1.235750
  C     -0.000000    1.950000   -1.391500
  H     -0.000000    1.950000   -2.471500
  C     -1.205074    1.950000   -0.695750
  H     -2.140382    1.950000   -1.235750
  C     -1.205074    1.950000    0.695750
  H     -2.140382    1.950000    1.235750
  C     -1.205074   -1.950000   -0.695750
  H     -2.140382   -1.950000   -1.235750
  C     -0.000000   -1.950000   -1.391500
  H     -0.000000   -1.950000   -2.471500
  C      1.205074   -1.950000   -0.695750
  H      2.140382   -1.950000   -1.235750
  C      1.205074   -1.950000    0.695750
  H      2.140382   -1.950000    1.235750
  C     -0.000000   -1.950000    1.391500
  H     -0.000000   -1.950000    2.471500
  C     -1.205074   -1.950000    0.695750
  H     -2.140382   -1.950000    1.235750

----------------------------
CARTESIAN COORDINATES (A.U.)
----------------------------
  NO LB      ZA    FRAG     MASS         X           Y           Z
   0 C     6.0000    0    12.011    0.000000    3.684966    2.629554
   1 H     1.0000    0     1.008    0.000000    3.684966    4.670458
   2 C     6.0000    0    12.011    2.277260    3.684966    1.314777
   3 H     1.0000    0     1.008    4.044735    3.684966    2.335229
   4 C     6.0000    0    12.011    2.277260    3.684966   -1.314777
   5 H     1.0000    0     1.008    4.044735    3.684966   -2.335229
   6 C     6.0000    0    12.011   -0.000000    3.684966   -2.629554
   7 H     1.0000    0     1.008   -0.000000    3.684966   -4.670458
   8 C     6.0000    0    12.011   -2.277260    3.684966   -1.314777
   9 H     1.0000    0     1.008   -4.044735    3.684966   -2.335229
  10 C     6.0000    0    12.011   -2.277260    3.684966    1.314777
  11 H     1.0000    0     1.008   -4.044735    3.684966    2.335229
  12 C     6.0000    0    12.011   -2.277260   -3.684966   -1.314777
  13 H     1.0000    0     1.008   -4.044735   -3.684966   -2.335229
  14 C     6.0000    0    12.011   -0.000000   -3.684966   -2.629554
  15 H     1.0000    0     1.008   -0.000000   -3.684966   -4.670458
  16 C     6.0000    0    12.011    2.277260   -3.684966   -1.314777
  17 H     1.0000    0     1.008    4.044735   -3.684966   -2.335229
  18 C     6.0000    0    12.011    2.277260   -3.684966    1.314777
  19 H     1.0000    0     1.008    4.044735   -3.684966    2.335229
  20 C     6.0000    0    12.011   -0.000000   -3.684966    2.629554
  21 H     1.0000    0     1.008   -0.000000   -3.684966    4.670458
  22 C     6.0000    0    12.011   -2.277260   -3.684966    1.314777
  23 H     1.0000    0     1.008   -4.044735   -3.684966    2.335229

--------------------------------
INTERNAL COORDINATES (ANGSTROEM)
--------------------------------
 C      0   0   0     0.000000000000     0.00000000     0.00000000
 H      1   0   0     1.080000000000     0.00000000     0.00000000
 C      1   2   0     1.391500000000   120.00000000     0.00000000
 H      3   1   2     1.080000000000   120.00000000     0.00000000
 C      3   1   2     1.391500000000   120.00000000   180.00000000
 H      5   3   1     1.080000000000   120.00000000   180.00000000
 C      5   3   1     1.391500000000   120.00000000     0.00000000
 H      7   5   3     1.080000000000   120.00000000   180.00000000
 C      7   5   3     1.391500000000   120.00000000     0.00000000
 H      9   7   5     1.080000000000   120.00000000   180.00000085
 C      1   2   3     1.391500000000   120.00000000   180.00000000
 H     11   1   2     1.080000000000   120.00000000     0.00000000
 C      9   7   5     3.900000000000    90.00000000   270.00000000
 H     13   9   7     1.080000000000    90.00000000   240.00000000
 C     13   9   7     1.391500000000    90.00000000     0.00000000
 H     15  13   9     1.080000000000   120.00000000   270.00000000
 C     15  13   9     1.391500000000   120.00000000    90.00000000
 H     17  15  13     1.080000000000   120.00000000   180.00000085
 C     17  15  13     1.391500000000   120.00000000     0.00000000
 H     19  17  15     1.080000000000   120.00000000   180.00000000
 C     19  17  15     1.391500000000   120.00000000     0.00000000
 H     21  19  17     1.080000000000   120.00000000   180.00000000
 C     21  19  17     1.391500000000   120.00000000     0.00000000
 H     23  21  19     1.080000000000   120.00000000   180.00000085

---------------------------
INTERNAL COORDINATES (A.U.)
---------------------------
 C      0   0   0     0.000000000000     0.00000000     0.00000000
 H      1   0   0     2.040904224635     0.00000000     0.00000000
 C      1   2   0     2.629553915351   120.00000000     0.00000000
 H      3   1   2     2.040904224635   120.00000000     0.00000000
 C      3   1   2     2.629553915351   120.00000000   180.00000000
 H      5   3   1     2.040904224635   120.00000000   180.00000000
 C      5   3   1     2.629553915351   120.00000000     0.00000000
 H      7   5   3     2.040904224635   120.00000000   180.00000000
 C      7   5   3     2.629553915351   120.00000000     0.00000000
 H      9   7   5     2.040904224635   120.00000000   180.00000085
 C      1   2   3     2.629553915351   120.00000000   180.00000000
 H     11   1   2     2.040904224635   120.00000000     0.00000000
 C      9   7   5     7.369931922293    90.00000000   270.00000000
 H     13   9   7     2.040904224635    90.00000000   240.00000000
 C     13   9   7     2.629553915351    90.00000000     0.00000000
 H     15  13   9     2.040904224635   120.00000000   270.00000000
 C     15  13   9     2.629553915351   120.00000000    90.00000000
 H     17  15  13     2.040904224635   120.00000000   180.00000085
 C     17  15  13     2.629553915351   120.00000000     0.00000000
 H     19  17  15     2.040904224635   120.00000000   180.00000000
 C     19  17  15     2.629553915351   120.00000000     0.00000000
 H     21  19  17     2.040904224635   120.00000000   180.00000000
 C     21  19  17     2.629553915351   120.00000000     0.00000000
 H     23  21  19     2.040904224635   120.00000000   180.00000085

---------------------
BASIS SET INFORMATION
---------------------
There are 2 groups of distinct atoms

 Group   1 Type C   : 10s4p1d contracted to 3s2p1d pattern {631/31/1}
 Group   2 Type H   : 4s1p contracted to 2s1p pattern {31/1}

Atom   0C    basis set group =>   1
Atom   1H    basis set group =>   2
Atom   2C    basis set group =>   1
Atom   3H    basis set group =>   2
Atom   4C    basis set group =>   1
Atom   5H    basis set group =>   2
Atom   6C    basis set group =>   1
Atom   7H    basis set group =>   2
Atom   8C    basis set group =>   1
Atom   9H    basis set group =>   2
Atom  10C    basis set group =>   1
Atom  11H    basis set group =>   2
Atom  12C    basis set group =>   1
Atom  13H    basis set group =>   2
Atom  14C    basis set group =>   1
Atom  15H    basis set group =>   2
Atom  16C    basis set group =>   1
Atom  17H    basis set group =>   2
Atom  18C    basis set group =>   1
Atom  19H    basis set group =>   2
Atom  20C    basis set group =>   1
Atom  21H    basis set group =>   2
Atom  22C    basis set group =>   1
Atom  23H    basis set group =>   2
------------------------------------------------------------------------------
                           ORCA GTO INTEGRAL CALCULATION
------------------------------------------------------------------------------

                         BASIS SET STATISTICS AND STARTUP INFO

 # of primitive gaussian shells          ...  240
 # of primitive gaussian functions       ...  408
 # of contracted shells                  ...  108
 # of contracted basis functions         ...  228
 Highest angular momentum                ...    2
 Maximum contraction depth               ...    6
 Integral package used                   ... LIBINT
 Integral threshhold            Thresh   ...  2.500e-11
 Primitive cut-off              TCut     ...  2.500e-12


------------------------------ INTEGRAL EVALUATION ----------------------------


 * One electron integrals 
 Pre-screening matrix                    ... done
 Shell pair data                         ... done (   0.003 sec)

-------------------------------------------------------------------------------
                                 ORCA SCF
-------------------------------------------------------------------------------

------------
SCF SETTINGS
------------
Hamiltonian:
 Ab initio Hamiltonian  Method          .... Hartree-Fock(GTOs)


General Settings:
 Integral files         IntName         .... benzene_dimer
 Hartree-Fock type      HFTyp           .... RHF
 Total Charge           Charge          ....    0
 Multiplicity           Mult            ....    1
 Number of Electrons    NEL             ....   84
 Basis Dimension        Dim             ....  228
 Nuclear Repulsion      ENuc            ....    618.2896427477 Eh

Convergence Acceleration:
 DIIS                   CNVDIIS         .... on
   Start iteration      DIISMaxIt       ....    12
   Startup error        DIISStart       ....  0.200000
   # of expansion vecs  DIISMaxEq       ....     5
   Bias factor          DIISBfac        ....   1.050
   Max. coefficient     DIISMaxC        ....  10.000
 Newton-Raphson         CNVNR           .... off
 SOSCF                  CNVSOSCF        .... on
   Start iteration      SOSCFMaxIt      ....   150
   Startup grad/error   SOSCFStart      ....  0.003300
 Level Shifting         CNVShift        .... on
   Level shift para.    LevelShift      ....    0.2500
   Turn off err/grad.   ShiftErr        ....    0.0010
 Zerner damping         CNVZerner       .... off
 Static damping         CNVDamp         .... on
   Fraction old density DampFac         ....    0.7000
   Max. Damping (<1)    DampMax         ....    0.9800
   Min. Damping (>=0)   DampMin         ....    0.0000
   Turn off err/grad.   DampErr         ....    0.1000
 Fernandez-Rico         CNVRico         .... off

SCF Procedure:
 Maximum # iterations   MaxIter         ....   125
 SCF integral mode      SCFMode         .... Direct
   Integral package                     .... LIBINT
 Reset frequeny         DirectResetFreq ....    20
 Integral Threshold     Thresh          ....  2.500e-11 Eh
 Primitive CutOff       TCut            ....  2.500e-12 Eh

Convergence Tolerance:
 Convergence Check Mode ConvCheckMode   .... Total+1el-Energy
 Convergence forced     ConvForced      .... 1
 Energy Change          TolE            ....  1.000e-08 Eh
 1-El. energy change                    ....  1.000e-05 Eh
 Orbital Gradient       TolG            ....  1.000e-05
 Orbital Rotation angle TolX            ....  1.000e-05
 DIIS Error             TolErr          ....  5.000e-07


Diagonalization of the overlap matrix:
Smallest eigenvalue                        ... 4.730e-04
Time for diagonalization                   ...    0.029 sec
Threshold for overlap eigenvalues          ... 1.000e-08
Number of eigenvalues below threshold      ... 0
Time for construction of square roots      ...    0.020 sec
Total time needed                          ...    0.050 sec

-------------------
DFT GRID GENERATION
-------------------

General Integration Accuracy     IntAcc      ...  4.340
Radial Grid Type                 RadialGrid  ... Gauss-Chebyshev
Angular Grid (max. acc.)         AngularGrid ... Lebedev-110
Angular grid pruning method      GridPruning ... 3 (G Style)
Weight generation scheme         WeightScheme... Becke
Basis function cutoff            BFCut       ...    1.0000e-11
Integration weight cutoff        WCut        ...    1.0000e-14
Grids for H and He will be reduced by one unit

# of grid points (after initial pruning)     ...  29400 (   0.0 sec)
# of grid points (after weights+screening)   ...  26524 (   0.1 sec)
nearest neighbour list constructed           ...    0.0 sec
Grid point re-assignment to atoms done       ...    0.0 sec
Grid point division into batches done        ...    0.0 sec
Reduced shell lists constructed in    0.6 sec

Total number of grid points                  ...    26524
Total number of batches                      ...      432
Average number of points per batch           ...       61
Average number of grid points per atom       ...     1105
Average number of shells per batch           ...    64.80 (60.00%)
Average number of basis functions per batch  ...   132.41 (58.08%)
Average number of large shells per batch     ...    46.69 (72.06%)
Average number of large basis fcns per batch ...    96.83 (73.13%)
Maximum spatial batch extension              ...  20.11, 23.91, 18.01 au
Average spatial batch extension              ...   3.43,  4.07,  3.16 au

Time for grid setup =    0.773 sec

------------------------------
INITIAL GUESS: MODEL POTENTIAL
------------------------------
Loading Hartree-Fock densities                     ... done
Calculating cut-offs                               ... done
Setting up the integral package                    ... done
Initializing the effective Hamiltonian             ... done
Starting the Coulomb interaction                   ... done (   0.6 sec)
Reading the grid                                   ... done
Mapping shells                                     ... done
Starting the XC term evaluation                    ... done (   0.5 sec)
Transforming the Hamiltonian                       ... done (   0.0 sec)
Diagonalizing the Hamiltonian                      ... done (   0.0 sec)
Back transforming the eigenvectors                 ... done (   0.0 sec)
Now organizing SCF variables                       ... done
                      ------------------
                      INITIAL GUESS DONE (   2.0 sec)
                      ------------------
--------------
SCF ITERATIONS
--------------
ITER       Energy         Delta-E        Max-DP      RMS-DP      [F,P]     Damp
               ***  Starting incremental Fock matrix formation  ***
  0   -460.9598324948   0.000000000000 0.03962576  0.00166171  0.1603348 0.7000
  1   -461.1188714774  -0.159038982600 0.03065800  0.00130938  0.1061338 0.7000
                               ***Turning on DIIS***
  2   -461.2180258744  -0.099154396974 0.06639603  0.00295208  0.0642446 0.0000
  3   -460.4567648740   0.761261000343 0.01104806  0.00061705  0.0252434 0.0000
  4   -461.3955054025  -0.938740528497 0.00306181  0.00021614  0.0043894 0.0000
                      *** Initiating the SOSCF procedure ***
                           *** Shutting down DIIS ***
                      *** Re-Reading the Fockian *** 
                      *** Removing any level shift *** 
ITER      Energy       Delta-E        Grad      Rot      Max-DP    RMS-DP
  5   -461.42303779  -0.0275323893  0.001779  0.001779  0.001445  0.000094
               *** Restarting incremental Fock matrix formation ***
  6   -461.42333372  -0.0002959291  0.000398  0.000363  0.000471  0.000029
  7   -461.42333769  -0.0000039654  0.000127  0.000149  0.000197  0.000012
  8   -461.42333811  -0.0000004242  0.000007  0.000006  0.000008  0.000001
  9   -461.42333811  -0.0000000041  0.000003  0.000001  0.000002  0.000000
                  ***Gradient check signals convergence***
              ***Rediagonalizing the Fockian in SOSCF/NRSCF***

               *****************************************************
               *                     SUCCESS                       *
               *           SCF CONVERGED AFTER  10 CYCLES          *
               *****************************************************


----------------
TOTAL SCF ENERGY
----------------

Total Energy       :         -461.42333811 Eh          -12555.96736 eV

Components:
Nuclear Repulsion  :          618.28964275 Eh           16824.51652 eV
Electronic Energy  :        -1079.71298086 Eh          -29380.48388 eV
One Electron Energy:        -1850.22939376 Eh          -50347.30141 eV
Two Electron Energy:          770.51641290 Eh           20966.81753 eV

Virial components:
Potential Energy   :         -922.55428581 Eh          -25103.97838 eV
Kinetic Energy     :          461.13094769 Eh           12548.01102 eV
Virial Ratio       :            2.00063407


---------------
SCF CONVERGENCE
---------------

  Last Energy change         ...    8.2537e-11  Tolerance :   1.0000e-08
  Last MAX-Density change    ...    5.8271e-07  Tolerance :   1.0000e-07
  Last RMS-Density change    ...    2.7637e-08  Tolerance :   5.0000e-09
  Last Orbital Gradient      ...    4.1317e-07  Tolerance :   1.0000e-05
  Last Orbital Rotation      ...    7.8194e-07  Tolerance :   1.0000e-05

             **** THE GBW FILE WAS UPDATED (benzene_dimer.gbw) ****
             **** DENSITY FILE WAS UPDATED (benzene_dimer.scfp.tmp) ****
             **** ENERGY FILE WAS UPDATED (benzene_dimer.en.tmp) ****
----------------
ORBITAL ENERGIES
----------------

  NO   OCC          E(Eh)            E(eV) 
   0   2.0000     -11.224632      -305.4378 
   1   2.0000     -11.224619      -305.4374 
   2   2.0000     -11.224076      -305.4226 
   3   2.0000     -11.224076      -305.4226 
   4   2.0000     -11.224064      -305.4223 
   5   2.0000     -11.224064      -305.4223 
   6   2.0000     -11.222875      -305.3899 
   7   2.0000     -11.222875      -305.3899 
   8   2.0000     -11.222868      -305.3898 
   9   2.0000     -11.222868      -305.3898 
  10   2.0000     -11.222295      -305.3742 
  11   2.0000     -11.222289      -305.3740 
  12   2.0000      -1.138989       -30.9935 
  13   2.0000      -1.137244       -30.9460 
  14   2.0000      -1.003782       -27.3143 
  15   2.0000      -1.003782       -27.3143 
  16   2.0000      -1.002213       -27.2716 
  17   2.0000      -1.002213       -27.2716 
  18   2.0000      -0.813053       -22.1243 
  19   2.0000      -0.813053       -22.1243 
  20   2.0000      -0.811737       -22.0885 
  21   2.0000      -0.811737       -22.0885 
  22   2.0000      -0.698800       -19.0153 
  23   2.0000      -0.697266       -18.9736 
  24   2.0000      -0.634181       -17.2570 
  25   2.0000      -0.632720       -17.2172 
  26   2.0000      -0.605952       -16.4888 
  27   2.0000      -0.605391       -16.4735 
  28   2.0000      -0.576852       -15.6969 
  29   2.0000      -0.576852       -15.6969 
  30   2.0000      -0.575579       -15.6623 
  31   2.0000      -0.575579       -15.6623 
  32   2.0000      -0.499682       -13.5970 
  33   2.0000      -0.483021       -13.1437 
  34   2.0000      -0.483021       -13.1437 
  35   2.0000      -0.482065       -13.1177 
  36   2.0000      -0.482065       -13.1177 
  37   2.0000      -0.477753       -13.0003 
  38   2.0000      -0.333380        -9.0717 
  39   2.0000      -0.333380        -9.0717 
  40   2.0000      -0.312666        -8.5081 
  41   2.0000      -0.312666        -8.5081 
  42   0.0000       0.141843         3.8597 
  43   0.0000       0.141843         3.8597 
  44   0.0000       0.166336         4.5262 
  45   0.0000       0.166336         4.5262 
  46   0.0000       0.232950         6.3389 
  47   0.0000       0.245354         6.6764 
  48   0.0000       0.289872         7.8878 
  49   0.0000       0.289872         7.8878 
  50   0.0000       0.304600         8.2886 
  51   0.0000       0.304600         8.2886 
  52   0.0000       0.328013         8.9257 
  53   0.0000       0.328013         8.9257 
  54   0.0000       0.331494         9.0204 
  55   0.0000       0.342851         9.3295 
  56   0.0000       0.342851         9.3295 
  57   0.0000       0.347176         9.4471 
  58   0.0000       0.360560         9.8113 
  59   0.0000       0.385521        10.4905 
  60   0.0000       0.471877        12.8404 
  61   0.0000       0.471877        12.8404 
  62   0.0000       0.481353        13.0983 
  63   0.0000       0.481353        13.0983 
  64   0.0000       0.499781        13.5997 
  65   0.0000       0.499781        13.5997 
  66   0.0000       0.506733        13.7889 
  67   0.0000       0.506733        13.7889 
  68   0.0000       0.647307        17.6141 
  69   0.0000       0.658304        17.9134 
  70   0.0000       0.669380        18.2148 
  71   0.0000       0.742434        20.2027 
  72   0.0000       0.744319        20.2540 
  73   0.0000       0.744319        20.2540 
  74   0.0000       0.758889        20.6504 
  75   0.0000       0.781003        21.2522 
  76   0.0000       0.782692        21.2981 
  77   0.0000       0.787809        21.4374 
  78   0.0000       0.789973        21.4963 
  79   0.0000       0.792898        21.5759 
  80   0.0000       0.795781        21.6543 
  81   0.0000       0.826675        22.4950 
  82   0.0000       0.826675        22.4950 
  83   0.0000       0.847861        23.0715 
  84   0.0000       0.847861        23.0715 
  85   0.0000       0.858138        23.3511 
  86   0.0000       0.858138        23.3511 
  87   0.0000       0.865366        23.5478 
  88   0.0000       0.865366        23.5478 
  89   0.0000       0.887204        24.1421 
  90   0.0000       0.887204        24.1421 
  91   0.0000       0.933810        25.4103 
  92   0.0000       0.956944        26.0398 
  93   0.0000       0.975171        26.5358 
  94   0.0000       0.975171        26.5358 
  95   0.0000       0.991293        26.9745 
  96   0.0000       0.991293        26.9745 
  97   0.0000       1.049770        28.5657 
  98   0.0000       1.085266        29.5316 
  99   0.0000       1.085266        29.5316 
 100   0.0000       1.088156        29.6102 
 101   0.0000       1.088156        29.6102 
 102   0.0000       1.096667        29.8418 
 103   0.0000       1.096667        29.8418 
 104   0.0000       1.105259        30.0756 
 105   0.0000       1.105259        30.0756 
 106   0.0000       1.108565        30.1656 
 107   0.0000       1.127776        30.6883 
 108   0.0000       1.172420        31.9032 
 109   0.0000       1.174811        31.9682 
 110   0.0000       1.174811        31.9682 
 111   0.0000       1.202706        32.7273 
 112   0.0000       1.228704        33.4347 
 113   0.0000       1.228704        33.4347 
 114   0.0000       1.249101        33.9898 
 115   0.0000       1.259183        34.2641 
 116   0.0000       1.276802        34.7435 
 117   0.0000       1.276802        34.7435 
 118   0.0000       1.358934        36.9785 
 119   0.0000       1.358934        36.9785 
 120   0.0000       1.375167        37.4202 
 121   0.0000       1.375167        37.4202 
 122   0.0000       1.416658        38.5492 
 123   0.0000       1.416658        38.5492 
 124   0.0000       1.442588        39.2548 
 125   0.0000       1.522942        41.4414 
 126   0.0000       1.525121        41.5007 
 127   0.0000       1.525125        41.5008 
 128   0.0000       1.565948        42.6116 
 129   0.0000       1.565965        42.6121 
 130   0.0000       1.662150        45.2294 
 131   0.0000       1.662150        45.2294 
 132   0.0000       1.682078        45.7717 
 133   0.0000       1.682078        45.7717 
 134   0.0000       1.692131        46.0452 
 135   0.0000       1.692131        46.0452 
 136   0.0000       1.710579        46.5472 
 137   0.0000       1.710579        46.5472 
[...]
      pz      :     0.004324  p :     0.015472
      px      :     0.007568
      py      :     0.003580
  4 C s       :     3.149659  s :     3.149659
      pz      :     0.940337  p :     2.909407
      px      :     0.985391
      py      :     0.983679
      dz2     :     0.013223  d :     0.055543
      dxz     :     0.017466
      dyz     :     0.009369
      dx2y2   :     0.008628
      dxy     :     0.006858
  5 H s       :     0.869920  s :     0.869920
      pz      :     0.004323  p :     0.015472
      px      :     0.007570
      py      :     0.003580
  6 C s       :     3.149655  s :     3.149655
      pz      :     1.007896  p :     2.909407
      px      :     0.917828
      py      :     0.983682
      dz2     :     0.015471  d :     0.055543
      dxz     :     0.014779
      dyz     :     0.005603
      dx2y2   :     0.009067
      dxy     :     0.010623
  7 H s       :     0.869918  s :     0.869918
      pz      :     0.009192  p :     0.015472
      px      :     0.002700
      py      :     0.003580
  8 C s       :     3.149660  s :     3.149660
      pz      :     0.940355  p :     2.909412
      px      :     0.985375
      py      :     0.983682
      dz2     :     0.013222  d :     0.055543
      dxz     :     0.017467
      dyz     :     0.009368
      dx2y2   :     0.008628
      dxy     :     0.006858
  9 H s       :     0.869920  s :     0.869920
      pz      :     0.004324  p :     0.015472
      px      :     0.007568
      py      :     0.003580
 10 C s       :     3.149654  s :     3.149654
      pz      :     0.940338  p :     2.909409
      px      :     0.985387
      py      :     0.983684
      dz2     :     0.013223  d :     0.055543
      dxz     :     0.017466
      dyz     :     0.009369
      dx2y2   :     0.008628
      dxy     :     0.006858
 11 H s       :     0.869916  s :     0.869916
      pz      :     0.004323  p :     0.015472
      px      :     0.007570
      py      :     0.003580
 12 C s       :     3.149660  s :     3.149660
      pz      :     0.940337  p :     2.909409
      px      :     0.985392
      py      :     0.983680
      dz2     :     0.013223  d :     0.055543
      dxz     :     0.017466
      dyz     :     0.009369
      dx2y2   :     0.008628
      dxy     :     0.006857
 13 H s       :     0.869922  s :     0.869922
      pz      :     0.004323  p :     0.015472
      px      :     0.007570
      py      :     0.003580
 14 C s       :     3.149655  s :     3.149655
      pz      :     1.007896  p :     2.909410
      px      :     0.917830
      py      :     0.983684
      dz2     :     0.015471  d :     0.055543
      dxz     :     0.014779
      dyz     :     0.005603
      dx2y2   :     0.009067
      dxy     :     0.010623
 15 H s       :     0.869916  s :     0.869916
      pz      :     0.009192  p :     0.015472
      px      :     0.002700
      py      :     0.003580
 16 C s       :     3.149659  s :     3.149659
      pz      :     0.940354  p :     2.909407
      px      :     0.985374
      py      :     0.983679
      dz2     :     0.013222  d :     0.055543
      dxz     :     0.017467
      dyz     :     0.009368
      dx2y2   :     0.008628
      dxy     :     0.006858
 17 H s       :     0.869920  s :     0.869920
      pz      :     0.004324  p :     0.015472
      px      :     0.007568
      py      :     0.003580
 18 C s       :     3.149655  s :     3.149655
      pz      :     0.940337  p :     2.909407
      px      :     0.985387
      py      :     0.983682
      dz2     :     0.013223  d :     0.055543
      dxz     :     0.017466
      dyz     :     0.009369
      dx2y2   :     0.008628
      dxy     :     0.006858
 19 H s       :     0.869918  s :     0.869918
      pz      :     0.004323  p :     0.015472
      px      :     0.007570
      py      :     0.003580
 20 C s       :     3.149660  s :     3.149660
      pz      :     1.007903  p :     2.909412
      px      :     0.917828
      py      :     0.983682
      dz2     :     0.015471  d :     0.055543
      dxz     :     0.014779
      dyz     :     0.005603
      dx2y2   :     0.009067
      dxy     :     0.010623
 21 H s       :     0.869920  s :     0.869920
      pz      :     0.009192  p :     0.015472
      px      :     0.002700
      py      :     0.003580
 22 C s       :     3.149654  s :     3.149654
      pz      :     0.940354  p :     2.909409
      px      :     0.985371
      py      :     0.983684
      dz2     :     0.013222  d :     0.055543
      dxz     :     0.017467
      dyz     :     0.009368
      dx2y2   :     0.008628
      dxy     :     0.006858
 23 H s       :     0.869916  s :     0.869916
      pz      :     0.004324  p :     0.015472
      px      :     0.007568
      py      :     0.003580


                     *******************************
                     * LOEWDIN POPULATION ANALYSIS *
                     *******************************

----------------------
LOEWDIN ATOMIC CHARGES
----------------------
   0 C :   -0.071870
   1 H :    0.071869
   2 C :   -0.071873
   3 H :    0.071872
   4 C :   -0.071869
   5 H :    0.071870
   6 C :   -0.071871
   7 H :    0.071871
   8 C :   -0.071871
   9 H :    0.071870
  10 C :   -0.071873
  11 H :    0.071872
  12 C :   -0.071870
  13 H :    0.071869
  14 C :   -0.071873
  15 H :    0.071872
  16 C :   -0.071869
  17 H :    0.071870
  18 C :   -0.071871
  19 H :    0.071871
  20 C :   -0.071871
  21 H :    0.071870
  22 C :   -0.071873
  23 H :    0.071872

-------------------------------
LOEWDIN REDUCED ORBITAL CHARGES
-------------------------------
  0 C s       :     2.896326  s :     2.896326
      pz      :     1.047083  p :     3.069289
      px      :     1.052509
      py      :     0.969698
      dz2     :     0.028945  d :     0.106255
      dxz     :     0.033047
      dyz     :     0.007025
      dx2y2   :     0.019251
      dxy     :     0.017986
  1 H s       :     0.883202  s :     0.883202
      pz      :     0.028780  p :     0.044928
      px      :     0.007257
      py      :     0.008892
  2 C s       :     2.896326  s :     2.896326
      pz      :     1.051152  p :     3.069293
      px      :     1.048440
      py      :     0.969700
      dz2     :     0.029409  d :     0.106254
      dxz     :     0.037144
      dyz     :     0.015245
      dx2y2   :     0.014689
      dxy     :     0.009767
  3 H s       :     0.883199  s :     0.883199
      pz      :     0.012640  p :     0.044929
      px      :     0.023397
      py      :     0.008892
  4 C s       :     2.896326  s :     2.896326
      pz      :     1.051153  p :     3.069288
      px      :     1.048439
      py      :     0.969697
      dz2     :     0.029412  d :     0.106255
      dxz     :     0.037142
      dyz     :     0.015247
      dx2y2   :     0.014689
      dxy     :     0.009765
  5 H s       :     0.883201  s :     0.883201
      pz      :     0.012636  p :     0.044929
      px      :     0.023401
      py      :     0.008892
  6 C s       :     2.896326  s :     2.896326
      pz      :     1.047083  p :     3.069291
      px      :     1.052508
      py      :     0.969700
      dz2     :     0.028945  d :     0.106254
      dxz     :     0.033047
      dyz     :     0.007026
      dx2y2   :     0.019251
      dxy     :     0.017986
  7 H s       :     0.883200  s :     0.883200
      pz      :     0.028780  p :     0.044929
      px      :     0.007257
      py      :     0.008892
  8 C s       :     2.896326  s :     2.896326
      pz      :     1.051152  p :     3.069291
      px      :     1.048440
      py      :     0.969699
      dz2     :     0.029409  d :     0.106254
      dxz     :     0.037144
      dyz     :     0.015245
      dx2y2   :     0.014689
      dxy     :     0.009767
  9 H s       :     0.883201  s :     0.883201
      pz      :     0.012640  p :     0.044929
      px      :     0.023397
      py      :     0.008892
 10 C s       :     2.896326  s :     2.896326
      pz      :     1.051153  p :     3.069293
      px      :     1.048439
      py      :     0.969701
      dz2     :     0.029412  d :     0.106254
      dxz     :     0.037142
      dyz     :     0.015247
      dx2y2   :     0.014689
      dxy     :     0.009765
 11 H s       :     0.883199  s :     0.883199
      pz      :     0.012636  p :     0.044929
      px      :     0.023401
      py      :     0.008892
 12 C s       :     2.896326  s :     2.896326
      pz      :     1.051153  p :     3.069289
      px      :     1.048439
      py      :     0.969698
      dz2     :     0.029412  d :     0.106255
      dxz     :     0.037142
      dyz     :     0.015247
      dx2y2   :     0.014689
      dxy     :     0.009765
 13 H s       :     0.883202  s :     0.883202
      pz      :     0.012635  p :     0.044928
      px      :     0.023401
      py      :     0.008892
 14 C s       :     2.896326  s :     2.896326
      pz      :     1.047084  p :     3.069293
      px      :     1.052509
      py      :     0.969700
      dz2     :     0.028945  d :     0.106254
      dxz     :     0.033048
      dyz     :     0.007026
      dx2y2   :     0.019251
      dxy     :     0.017986
 15 H s       :     0.883199  s :     0.883199
      pz      :     0.028780  p :     0.044929
      px      :     0.007257
      py      :     0.008892
 16 C s       :     2.896326  s :     2.896326
      pz      :     1.051152  p :     3.069288
      px      :     1.048440
      py      :     0.969697
      dz2     :     0.029409  d :     0.106255
      dxz     :     0.037144
      dyz     :     0.015245
      dx2y2   :     0.014689
      dxy     :     0.009767
 17 H s       :     0.883201  s :     0.883201
      pz      :     0.012639  p :     0.044929
      px      :     0.023397
      py      :     0.008892
 18 C s       :     2.896326  s :     2.896326
      pz      :     1.051153  p :     3.069291
      px      :     1.048439
      py      :     0.969700
      dz2     :     0.029412  d :     0.106254
      dxz     :     0.037142
      dyz     :     0.015247
      dx2y2   :     0.014689
      dxy     :     0.009765
 19 H s       :     0.883200  s :     0.883200
      pz      :     0.012635  p :     0.044929
      px      :     0.023401
      py      :     0.008892
 20 C s       :     2.896326  s :     2.896326
      pz      :     1.047083  p :     3.069291
      px      :     1.052509
      py      :     0.969699
      dz2     :     0.028945  d :     0.106254
      dxz     :     0.033047
      dyz     :     0.007026
      dx2y2   :     0.019251
      dxy     :     0.017986
 21 H s       :     0.883201  s :     0.883201
      pz      :     0.028780  p :     0.044929
      px      :     0.007257
      py      :     0.008892
 22 C s       :     2.896326  s :     2.896326
      pz      :     1.051152  p :     3.069293
      px      :     1.048440
      py      :     0.969701
      dz2     :     0.029409  d :     0.106254
      dxz     :     0.037144
      dyz     :     0.015245
      dx2y2   :     0.014689
      dxy     :     0.009767
 23 H s       :     0.883199  s :     0.883199
      pz      :     0.012639  p :     0.044929
      px      :     0.023397
      py      :     0.008892


                      *****************************
                      * MAYER POPULATION ANALYSIS *
                      *****************************

  NA   - Mulliken gross atomic population
  ZA   - Total nuclear charge
  QA   - Mulliken gross atomic charge
  VA   - Mayer's total valence
  BVA  - Mayer's bonded valence
  FA   - Mayer's free valence

  ATOM       NA         ZA         QA         VA         BVA        FA
  0 C      6.1146     6.0000    -0.1146     4.0301     3.7040     0.3261
  1 H      0.8854     1.0000     0.1146     0.9665     0.9195     0.0470
  2 C      6.1146     6.0000    -0.1146     4.0301     3.7040     0.3261
  3 H      0.8854     1.0000     0.1146     0.9665     0.9195     0.0470
  4 C      6.1146     6.0000    -0.1146     4.0301     3.7040     0.3261
  5 H      0.8854     1.0000     0.1146     0.9665     0.9195     0.0470
  6 C      6.1146     6.0000    -0.1146     4.0301     3.7040     0.3261
  7 H      0.8854     1.0000     0.1146     0.9665     0.9195     0.0470
  8 C      6.1146     6.0000    -0.1146     4.0301     3.7040     0.3261
  9 H      0.8854     1.0000     0.1146     0.9665     0.9195     0.0470
 10 C      6.1146     6.0000    -0.1146     4.0301     3.7040     0.3261
 11 H      0.8854     1.0000     0.1146     0.9665     0.9195     0.0470
 12 C      6.1146     6.0000    -0.1146     4.0301     3.7040     0.3261
 13 H      0.8854     1.0000     0.1146     0.9665     0.9195     0.0470
 14 C      6.1146     6.0000    -0.1146     4.0301     3.7040     0.3261
 15 H      0.8854     1.0000     0.1146     0.9665     0.9195     0.0470
 16 C      6.1146     6.0000    -0.1146     4.0301     3.7040     0.3261
 17 H      0.8854     1.0000     0.1146     0.9665     0.9195     0.0470
 18 C      6.1146     6.0000    -0.1146     4.0301     3.7040     0.3261
 19 H      0.8854     1.0000     0.1146     0.9665     0.9195     0.0470
 20 C      6.1146     6.0000    -0.1146     4.0301     3.7040     0.3261
 21 H      0.8854     1.0000     0.1146     0.9665     0.9195     0.0470
 22 C      6.1146     6.0000    -0.1146     4.0301     3.7040     0.3261
 23 H      0.8854     1.0000     0.1146     0.9665     0.9195     0.0470

  Mayer bond orders larger than 0.1
B(  0-C ,  1-H ) :   0.9181 B(  0-C ,  2-C ) :   1.3560 B(  0-C , 10-C ) :   1.3560 
B(  2-C ,  3-H ) :   0.9181 B(  2-C ,  4-C ) :   1.3560 B(  4-C ,  5-H ) :   0.9181 
B(  4-C ,  6-C ) :   1.3560 B(  6-C ,  7-H ) :   0.9181 B(  6-C ,  8-C ) :   1.3560 
B(  8-C ,  9-H ) :   0.9181 B(  8-C , 10-C ) :   1.3560 B( 10-C , 11-H ) :   0.9181 
B( 12-C , 13-H ) :   0.9181 B( 12-C , 14-C ) :   1.3560 B( 12-C , 22-C ) :   1.3560 
B( 14-C , 15-H ) :   0.9181 B( 14-C , 16-C ) :   1.3560 B( 16-C , 17-H ) :   0.9181 
B( 16-C , 18-C ) :   1.3560 B( 18-C , 19-H ) :   0.9181 B( 18-C , 20-C ) :   1.3560 
B( 20-C , 21-H ) :   0.9181 B( 20-C , 22-C ) :   1.3560 B( 22-C , 23-H ) :   0.9181 



----------------------------------
MP2 DERIVATIVE INTEGRAL GENERATION
----------------------------------


Input Wavefunction Amplitudes       ... benzene_dimer.mp2tsaa.tmp.proc0
Input Correlated Electron Density   ... benzene_dimer.pmp2re
Input Energy Weighted Density       ... benzene_dimer.wmp2.tmp
Input SCF Electron Density          ... benzene_dimer.scfp.tmp

One-Electron Terms    ...
                        ... One-Electron Terms done
Prescreening matrices              ... done

Batch handling in the gradient evaluation:
Memory available                      ...  256.0 MB
Memory per occupied orbital in Q2     ...   11.9 MB
Memory per occupied orbital in Q3     ...    0.0 MB
Total memory requirement per |i>      ...   11.9 MB
Max. Number of orbitals possible      ...     21
Number of orbitals treated per batch  ...     21
Number of batches to be done          ...      2
Batch   0: i=   12 ...    32
Batch   1: i=   33 ...    41

---------------------------------------
MP2 TOTAL ENERGY:     -462.996729733 Eh
---------------------------------------

-----------------------------------
NORM OF THE MP2 GRADIENT:  0.000046
-----------------------------------

-------------------------   --------------------
FINAL SINGLE POINT ENERGY      -462.996729733272
-------------------------   --------------------

                                *** OPTIMIZATION RUN DONE ***

                            ***************************************
                            *     ORCA property calculations      *
                            ***************************************

                                    ---------------------
                                    Active property flags
                                    ---------------------
   (+) Dipole Moment


------------------------------------------------------------------------------
                       ORCA ELECTRIC PROPERTIES CALCULATION
------------------------------------------------------------------------------

Dipole Moment Calculation                       ... on
Quadrupole Moment Calculation                   ... off
Polarizability Calculation                      ... off
GBWName                                         ... benzene_dimer.gbw
Electron density file                           ... benzene_dimer.scfp.tmp
The origin for moment calculation is the CENTER OF MASS  = (-0.000000, -0.000000  0.000000)

-------------
DIPOLE MOMENT
-------------
                                X             Y             Z
Electronic contribution:      0.00002      -0.00000      -0.00001
Nuclear contribution   :      0.00000       0.00000      -0.00000
                        -----------------------------------------
Total Dipole Moment    :      0.00002       0.00000      -0.00001
                        -----------------------------------------
Magnitude (a.u.)       :      0.00002
Magnitude (Debye)      :      0.00006


                         *** MP2 UNRELAXED DENSITY ***

------------------------------------------------------------------------------
                       ORCA ELECTRIC PROPERTIES CALCULATION
------------------------------------------------------------------------------

Dipole Moment Calculation                       ... on
Quadrupole Moment Calculation                   ... off
Polarizability Calculation                      ... off
GBWName                                         ... benzene_dimer.gbw
Electron density file                           ... benzene_dimer.pmp2ur
The origin for moment calculation is the CENTER OF MASS  = (-0.000000, -0.000000  0.000000)

-------------
DIPOLE MOMENT
-------------
                                X             Y             Z
Electronic contribution:      0.00002      -0.00000      -0.00001
Nuclear contribution   :      0.00000       0.00000      -0.00000
                        -----------------------------------------
Total Dipole Moment    :      0.00002       0.00000      -0.00001
                        -----------------------------------------
Magnitude (a.u.)       :      0.00002
Magnitude (Debye)      :      0.00006


                           *** MP2 RELAXED DENSITY ***

------------------------------------------------------------------------------
                       ORCA ELECTRIC PROPERTIES CALCULATION
------------------------------------------------------------------------------

Dipole Moment Calculation                       ... on
Quadrupole Moment Calculation                   ... off
Polarizability Calculation                      ... off
GBWName                                         ... benzene_dimer.gbw
Electron density file                           ... benzene_dimer.pmp2re
The origin for moment calculation is the CENTER OF MASS  = (-0.000000, -0.000000  0.000000)

-------------
DIPOLE MOMENT
-------------
                                X             Y             Z
Electronic contribution:      0.00001      -0.00000      -0.00001
Nuclear contribution   :      0.00000       0.00000      -0.00000
                        -----------------------------------------
Total Dipole Moment    :      0.00002       0.00000      -0.00001
                        -----------------------------------------
Magnitude (a.u.)       :      0.00002
Magnitude (Debye)      :      0.00005


Timings for individual modules:

Sum of individual times         ...     5265.258 sec (=  87.754 min)
GTO integral calculation        ...        4.347 sec (=   0.072 min)   0.1 %
SCF iterations                  ...      643.089 sec (=  10.718 min)  12.2 %
MP2 module                      ...     4599.804 sec (=  76.663 min)  87.4 %
Geometry relaxation             ...       18.019 sec (=   0.300 min)   0.3 %
                             ****ORCA TERMINATED NORMALLY****
TOTAL RUN TIME: 0 days 1 hours 27 minutes 50 seconds 411 msec
