
                                 *****************
                                 * O   R   C   A *
                                 *****************

           --- An Ab Initio, DFT and Semiempirical electronic structure package ---

                  #######################################################
                  #                        -***-                        #
                  #  Department of molecular theory and spectroscopy    #
                  #              Directorship: Frank Neese              #
                  # Max Planck Institute for Chemical Energy Conversion #
                  #                  D-45470 Muelheim/Ruhr              #
                  #                       Germany                       #
                  #                                                     #
                  #                  All rights reserved                #
                  #                        -***-                        #
                  #######################################################


                         Program Version 4.0.1.2 - RELEASE -


 With contributions from (in alphabetic order):
   Daniel Aravena         : Magnetic Properties
   Michael Atanasov       : Ab Initio Ligand Field Theory
   Ute Becker             : Parallelization
   Martin Brehm           : Molecular dynamics
   Dmytro Bykov           : SCF Hessian
   Vijay G. Chilkuri      : MRCI spin determinant printing
   Dipayan Datta          : RHF DLPNO-CCSD density
   Achintya Kumar Dutta   : EOM-CC, STEOM-CC
   Dmitry Ganyushin       : Spin-Orbit,Spin-Spin,Magnetic field MRCI
   Yang Guo               : DLPNO-NEVPT2, CIM, IAO-localization
   Andreas Hansen         : Spin unrestricted coupled pair/coupled cluster methods
   Lee Huntington         : MR-EOM, pCC
   Robert Izsak           : Overlap fitted RIJCOSX, COSX-SCS-MP3, EOM
   Christian Kollmar      : KDIIS, OOCD, Brueckner-CCSD(T), CCSD density
   Simone Kossmann        : Meta GGA functionals, TD-DFT gradient, OOMP2, MP2 Hessian
   Martin Krupicka        : AUTO-CI
   Dagmar Lenk            : GEPOL surface
   Dimitrios Liakos       : Extrapolation schemes; parallel MDCI
   Dimitrios Manganas     : ROCIS; embedding schemes
   Dimitrios Pantazis     : SARC Basis sets
   Taras Petrenko         : DFT Hessian,TD-DFT gradient, ASA, ECA, R-Raman, ABS, FL, XAS/XES, NRVS
   Peter Pinski           : DLPNO-MP2
   Christoph Reimann      : Effective Core Potentials
   Marius Retegan         : Local ZFS, SOC
   Christoph Riplinger    : Optimizer, TS searches, QM/MM, DLPNO-CCSD(T), (RO)-DLPNO pert. Triples
   Tobias Risthaus        : Range-separated hybrids, TD-DFT gradient, RPA, STAB
   Michael Roemelt        : Restricted open shell CIS
   Masaaki Saitow         : Open-shell DLPNO
   Barbara Sandhoefer     : DKH picture change effects
   Kantharuban Sivalingam : CASSCF convergence, NEVPT2, FIC-MRCI
   Georgi Stoychev        : AutoAux
   Boris Wezisla          : Elementary symmetry handling
   Frank Wennmohs         : Technical directorship


 We gratefully acknowledge several colleagues who have allowed us to
 interface, adapt or use parts of their codes:
   Stefan Grimme, W. Hujo, H. Kruse,             : VdW corrections, initial TS optimization,
                  C. Bannwarth                     DFT functionals, gCP, sTDA/sTD-DF
   Ed Valeev                                     : LibInt (2-el integral package), F12 methods
   Garnet Chan, S. Sharma, J. Yang, R. Olivares  : DMRG
   Ulf Ekstrom                                   : XCFun DFT Library
   Mihaly Kallay                                 : mrcc  (arbitrary order and MRCC methods)
   Andreas Klamt, Michael Diedenhofen            : otool_cosmo (COSMO solvation model)
   Jiri Pittner, Ondrej Demel                    : Mk-CCSD
   Frank Weinhold                                : gennbo (NPA and NBO analysis)
   Christopher J. Cramer and Donald G. Truhlar   : smd solvation model


 Your calculation uses the libint2 library for the computation of 2-el integrals
 For citations please refer to: http://libint.valeyev.net

 This ORCA versions uses:
   CBLAS   interface :  Fast vector & matrix operations
   LAPACKE interface :  Fast linear algebra routines
   SCALAPACK package :  Parallel linear algebra routines


Your calculation utilizes the basis: 6-31G**
   H-He, Li-Ne : W. J. Hehre, R. Ditchfield and J.A. Pople, J. Chem. Phys. 56, 2257 (1972).
                 Note: He and Ne are unpublished basis sets taken from the Gaussian program.
                 Note: Li and B from J. D. Dill and J. A. Pople, J. Chem. Phys. 62, 2921 (1975).
   Na - Ar     : M. M. Francl, W. J. Pietro, W. J. Hehre, J. S. Binkley, M. S. Gordon, 
                 D. J. DeFrees and J. A. Pople, J. Chem. Phys. 77, 3654 (1982).
   K - Zn      : V. A. Rassolov, J. A. Pople, M. A. Ratner, and T. L. Windus, J. Chem. Phys. 109, 1223 (1998).

================================================================================
                                        WARNINGS
                       Please study these warnings very carefully!
================================================================================

Warning: TCutStore was < 0. Adjusted to Thresh (uncritical)

WARNING: Geometry Optimization
  ===> : Switching off AutoStart
         For restart on a previous wavefunction, please use MOREAD

INFO   : the flag for use of LIBINT has been found!

================================================================================
                                       INPUT FILE
================================================================================
NAME = benzene_dimer.inp
|  1> !HF 6-31G** Opt
|  2> 
|  3> *xyz 0 1
|  4>   C   0.00161639472513      2.59675356603881      1.38582121723273
|  5>   H   0.00286184855896      2.59534136846259      2.46179264930183
|  6>   C   1.20096334849037      2.59668363482115      0.69152293463103
|  7>   H   2.13340687848547      2.59520639762836      1.22842729943878
|  8>   C   1.19935680486862      2.59657739482203     -0.69429109549787
|  9>   H   2.13055436601754      2.59502085376589     -1.23335357644460
| 10>   C   -0.00159527601653      2.59655146049602     -1.38580800934749
| 11>   H   -0.00283938796944      2.59495768046308     -2.46177972241731
| 12>   C   -1.20094100557001      2.59661134310781     -0.69150958556134
| 13>   H   -2.13338445829850      2.59504645595629     -1.22841455558407
| 14>   C   -1.19933544934681      2.59671546808275      0.69430384640366
| 15>   H   -2.13053262211895      2.59525430953044      1.23336649793485
| 16>   C   -1.19935924658204     -2.59666729206645     -0.69430307592028
| 17>   H   -2.13055344969286     -2.59518323118061     -1.23337103554714
| 18>   C   0.00159311229147     -2.59657505780625     -1.38581890975650
| 19>   H   0.00284277602523     -2.59501988681359     -2.46179065339666
| 20>   C   1.20094088067857     -2.59655762277821     -0.69152302345501
| 21>   H   2.13338281182835     -2.59498607304308     -1.22843010593999
| 22>   C   1.19933702104171     -2.59662898119135      0.69429040164388
| 23>   H   2.13053263538228     -2.59510414824704      1.23335554938773
| 24>   C   -0.00161647436841     -2.59671785436419      1.38580662053173
| 25>   H   -0.00286245259316     -2.59525134344652      2.46177827880707
| 26>   C   -1.20096369918007     -2.59673704401962      0.69151041653528
| 27>   H   -2.13340535665690     -2.59529139821828      1.22841763701968
| 28> *
| 29> 
| 30>                          ****END OF INPUT****
================================================================================

                       *****************************
                       * Geometry Optimization Run *
                       *****************************

Geometry optimization settings:
Update method            Update   .... BFGS
Choice of coordinates    CoordSys .... Redundant Internals
Initial Hessian          InHess   .... Almoef's Model

Convergence Tolerances:
Energy Change            TolE     ....  5.0000e-06 Eh
Max. Gradient            TolMAXG  ....  3.0000e-04 Eh/bohr
RMS Gradient             TolRMSG  ....  1.0000e-04 Eh/bohr
Max. Displacement        TolMAXD  ....  4.0000e-03 bohr
RMS Displacement         TolRMSD  ....  2.0000e-03 bohr

------------------------------------------------------------------------------
                        ORCA OPTIMIZATION COORDINATE SETUP
------------------------------------------------------------------------------

The optimization will be done in new redundant internal coordinates
Making redundant internal coordinates   ...  (new redundants) done
Evaluating the initial hessian          ...  (Almloef) done
Evaluating the coordinates              ...  done
Calculating the B-matrix                .... done
Calculating the G-matrix                .... done
Diagonalizing the G-matrix              .... done
The first mode is                       ....  648
The number of degrees of freedom        ....   66

    -----------------------------------------------------------------
                    Redundant Internal Coordinates


    -----------------------------------------------------------------
         Definition                    Initial Value    Approx d2E/dq
    -----------------------------------------------------------------
      1. B(H   1,C   0)                  1.0760         0.379142   
      2. B(C   2,C   0)                  1.3858         0.634476   
      3. B(H   3,C   2)                  1.0760         0.379141   
      4. B(C   4,C   2)                  1.3858         0.634476   
      5. B(H   5,C   4)                  1.0760         0.379141   
      6. B(C   6,C   4)                  1.3858         0.634478   
      7. B(H   7,C   6)                  1.0760         0.379142   
      8. B(C   8,C   6)                  1.3858         0.634479   
      9. B(H   9,C   8)                  1.0760         0.379141   
     10. B(C  10,C   8)                  1.3858         0.634478   
     11. B(C  10,C   0)                  1.3858         0.634478   
     12. B(H  11,C  10)                  1.0760         0.379142   
     13. B(C  12,C   2)                  5.8867         0.000000   
     14. B(C  12,C   6)                  5.3742         0.000000   
     15. B(C  12,C   8)                  5.1933         0.000001   
     16. B(C  12,H  11)                  5.6160         0.000000   
     17. B(C  12,H   1)                  6.1938         0.000000   
     18. B(C  12,C   0)                  5.7220         0.000000   
     19. B(C  12,H   7)                  5.6133         0.000000   
     20. B(C  12,H   9)                  5.3020         0.000000   
     21. B(C  12,C   4)                  5.7205         0.000000   
     22. B(C  12,H   5)                  6.1913         0.000000   
     23. B(C  12,C  10)                  5.3758         0.000000   
     24. B(H  13,C   8)                  5.3021         0.000000   
     25. B(H  13,C   0)                  6.1937         0.000000   
     26. B(H  13,C  10)                  5.6160         0.000000   
     27. B(H  13,C  12)                  1.0760         0.379142   
     28. B(H  13,H   7)                  5.7423         0.000000   
     29. B(H  13,C   6)                  5.6134         0.000000   
     30. B(H  13,H   9)                  5.1902         0.000000   
     31. B(H  13,C   4)                  6.1914         0.000000   
     32. B(H  13,H  11)                  5.7468         0.000000   
     33. B(C  14,C  12)                  1.3858         0.634478   
     34. B(C  14,H   3)                  6.1914         0.000000   
     35. B(C  14,C   0)                  5.8867         0.000000   
     36. B(C  14,C   8)                  5.3756         0.000000   
     37. B(C  14,H  11)                  6.1936         0.000000   
     38. B(C  14,C   2)                  5.7205         0.000000   
     39. B(C  14,C   6)                  5.1931         0.000001   
     40. B(C  14,H   9)                  5.6157         0.000000   
     41. B(C  14,C  10)                  5.7218         0.000000   
     42. B(C  14,H   5)                  5.6132         0.000000   
     43. B(C  14,H   7)                  5.3019         0.000000   
     44. B(C  14,C   4)                  5.3742         0.000000   
     45. B(H  15,C  14)                  1.0760         0.379142   
     46. B(H  15,C   2)                  6.1913         0.000000   
     47. B(H  15,C   8)                  5.6157         0.000000   
     48. B(H  15,C   6)                  5.3019         0.000000   
     49. B(H  15,H   5)                  5.7422         0.000000   
     50. B(H  15,H   7)                  5.1900         0.000000   
     51. B(H  15,C  10)                  6.1936         0.000000   
     52. B(H  15,C   4)                  5.6132         0.000000   
     53. B(H  15,H   9)                  5.7464         0.000000   
     54. B(C  16,C   0)                  5.7205         0.000000   
     55. B(C  16,H   3)                  5.6134         0.000000   
     56. B(C  16,C   8)                  5.7217         0.000000   
     57. B(C  16,H   7)                  5.6156         0.000000   
     58. B(C  16,C   2)                  5.3743         0.000000   
     59. B(C  16,C   6)                  5.3755         0.000000   
     60. B(C  16,C  10)                  5.8866         0.000000   
     61. B(C  16,H   9)                  6.1934         0.000000   
     62. B(C  16,H   5)                  5.3019         0.000000   
     63. B(C  16,H   1)                  6.1915         0.000000   
     64. B(C  16,C   4)                  5.1931         0.000001   
     65. B(C  16,C  14)                  1.3858         0.634478   
     66. B(H  17,C   0)                  6.1914         0.000000   
     67. B(H  17,H   3)                  5.7423         0.000000   
     68. B(H  17,C   8)                  6.1934         0.000000   
     69. B(H  17,H   7)                  5.7463         0.000000   
     70. B(H  17,C   2)                  5.6133         0.000000   
     71. B(H  17,C   4)                  5.3019         0.000000   
     72. B(H  17,C   6)                  5.6156         0.000000   
     73. B(H  17,H   5)                  5.1900         0.000000   
     74. B(H  17,C  16)                  1.0760         0.379141   
     75. B(C  18,C   0)                  5.3744         0.000000   
     76. B(C  18,H   3)                  5.3022         0.000000   
     77. B(C  18,C   8)                  5.8866         0.000000   
     78. B(C  18,H  11)                  6.1915         0.000000   
     79. B(C  18,H   7)                  6.1934         0.000000   
     80. B(C  18,C   2)                  5.1933         0.000001   
     81. B(C  18,C   6)                  5.7217         0.000000   
     82. B(C  18,C  10)                  5.7205         0.000000   
     83. B(C  18,H   5)                  5.6157         0.000000   
     84. B(C  18,H   1)                  5.6136         0.000000   
     85. B(C  18,C  16)                  1.3858         0.634478   
     86. B(C  18,C   4)                  5.3756         0.000000   
     87. B(H  19,C  10)                  6.1914         0.000000   
     88. B(H  19,C   0)                  5.6135         0.000000   
     89. B(H  19,H   3)                  5.1903         0.000000   
     90. B(H  19,C   2)                  5.3021         0.000000   
     91. B(H  19,C   6)                  6.1935         0.000000   
     92. B(H  19,H   5)                  5.7465         0.000000   
     93. B(H  19,H   1)                  5.7425         0.000000   
     94. B(H  19,C  18)                  1.0760         0.379142   
     95. B(H  19,C   4)                  5.6157         0.000000   
     96. B(C  20,C  10)                  5.3744         0.000000   
     97. B(C  20,H   3)                  5.6160         0.000000   
     98. B(C  20,H   9)                  6.1914         0.000000   
     99. B(C  20,C   8)                  5.7205         0.000000   
    100. B(C  20,C   2)                  5.3758         0.000000   
    101. B(C  20,C   6)                  5.8866         0.000000   
    102. B(C  20,C  18)                  1.3858         0.634476   
    103. B(C  20,H   5)                  6.1936         0.000000   
    104. B(C  20,H   1)                  5.3024         0.000000   
    105. B(C  20,C   4)                  5.7218         0.000000   
    106. B(C  20,H  11)                  5.6136         0.000000   
    107. B(C  20,C   0)                  5.1935         0.000001   
    108. B(H  21,H   3)                  5.7468         0.000000   
    109. B(H  21,C   8)                  6.1915         0.000000   
    110. B(H  21,C   2)                  5.6160         0.000000   
    111. B(H  21,C  20)                  1.0760         0.379142   
    112. B(H  21,H   1)                  5.1906         0.000000   
    113. B(H  21,C   4)                  6.1936         0.000000   
    114. B(H  21,H  11)                  5.7426         0.000000   
    115. B(H  21,C   0)                  5.3023         0.000000   
    116. B(H  21,C  10)                  5.6136         0.000000   
    117. B(C  22,H   3)                  6.1938         0.000000   
    118. B(C  22,H   9)                  5.6134         0.000000   
    119. B(C  22,C   8)                  5.3743         0.000000   
    120. B(C  22,C   2)                  5.7220         0.000000   
    121. B(C  22,H   7)                  6.1913         0.000000   
    122. B(C  22,C  20)                  1.3858         0.634478   
    123. B(C  22,C   6)                  5.7205         0.000000   
    124. B(C  22,C  12)                  1.3858         0.634478   
    125. B(C  22,H   1)                  5.6161         0.000000   
    126. B(C  22,C   4)                  5.8866         0.000000   
    127. B(C  22,C   0)                  5.3759         0.000000   
    128. B(C  22,H  11)                  5.3023         0.000000   
    129. B(C  22,C  10)                  5.1935         0.000001   
    130. B(H  23,H   9)                  5.7424         0.000000   
    131. B(H  23,C   8)                  5.6135         0.000000   
    132. B(H  23,C   2)                  6.1938         0.000000   
    133. B(H  23,C  22)                  1.0760         0.379142   
    134. B(H  23,C   6)                  6.1914         0.000000   
    135. B(H  23,H   1)                  5.7470         0.000000   
    136. B(H  23,C   0)                  5.6161         0.000000   
    137. B(H  23,H  11)                  5.1905         0.000000   
    138. B(H  23,C  10)                  5.3023         0.000000   
    139. A(C   2,C   0,C  22)           97.4028         0.101635   
    140. A(H   1,C   0,C   2)          120.0001         0.357403   
    141. A(H   1,C   0,C  16)          111.2049         0.096303   
    142. A(C  18,C   0,C  22)           25.8032         0.089458   
    143. A(C  12,C   0,C  14)           13.6162         0.089225   
    144. A(C   2,C   0,C  12)           89.9696         0.098476   
    145. A(H   1,C   0,C  10)          120.0000         0.357404   
    146. A(C  14,C   0,C  22)           24.0638         0.089299   
    147. A(C  14,C   0,C  16)           13.6162         0.089225   
    148. A(C  16,C   0,C  20)           24.8091         0.089400   
    149. A(C  14,C   0,C  18)           24.0638         0.089300   
    150. A(C  16,C   0,C  18)           13.9003         0.089344   
    151. A(C  12,C   0,C  22)           13.8968         0.089343   
    152. A(C  14,C   0,C  20)           28.0884         0.089348   
    153. A(H   1,C   0,C  12)          111.2590         0.096294   
    154. A(H   1,C   0,C  22)           97.3623         0.098726   
    155. A(C  10,C   0,C  16)           90.0261         0.098488   
    156. A(C  18,C   0,C  20)           14.9429         0.089534   
    157. A(C   2,C   0,C  14)           76.3535         0.097263   
    158. A(C  10,C   0,C  12)           68.6959         0.098476   
    159. A(H   1,C   0,C  18)           97.3047         0.098738   
    160. A(H   1,C   0,C  14)          118.0133         0.095361   
    161. A(C  10,C   0,C  20)           89.9674         0.103705   
    162. A(C  10,C   0,C  22)           75.0290         0.101635   
    163. A(C  20,C   0,C  22)           14.9385         0.089533   
    164. A(C  12,C   0,C  16)           24.2179         0.089258   
    165. A(C  12,C   0,C  18)           28.7099         0.089344   
    166. A(C   2,C   0,C  18)           75.0851         0.101651   
    167. A(C  10,C   0,C  14)           76.4100         0.097263   
    168. A(C  12,C   0,C  20)           24.8023         0.089400   
    169. A(C   2,C   0,C  10)          119.9999         0.437690   
    170. A(C   2,C   0,C  16)           68.6894         0.098487   
    171. A(H   1,C   0,C  20)           89.9250         0.100319   
    172. A(C   2,C   0,C  20)           90.0279         0.103705   
    173. A(C  16,C   0,C  22)           28.7134         0.089344   
    174. A(C  10,C   0,C  18)           97.4058         0.101651   
    175. A(H   3,C   2,C  16)           97.3015         0.098739   
    176. A(C  14,C   2,C  16)           13.9003         0.089344   
    177. A(C   0,C   2,C  18)           89.9721         0.103707   
    178. A(H   3,C   2,C  14)          111.2018         0.096303   
    179. A(H   3,C   2,C  20)           97.3592         0.098727   
    180. A(H   3,C   2,C  18)           89.9217         0.100321   
    181. A(C   4,C   2,C  18)           90.0261         0.103707   
    182. A(C  18,C   2,C  22)           24.8023         0.089400   
    183. A(C   4,C   2,C  16)           75.0829         0.101653   
    184. A(C   4,C   2,C  22)           89.9680         0.098476   
    185. A(H   3,C   2,C  12)          118.0098         0.095361   
    186. A(C  12,C   2,C  22)           13.6161         0.089225   
    187. A(C  16,C   2,C  18)           14.9432         0.089534   
    188. A(C  16,C   2,C  20)           25.8037         0.089459   
    189. A(C  18,C   2,C  20)           14.9387         0.089533   
    190. A(C  12,C   2,C  20)           24.0637         0.089299   
    191. A(C  12,C   2,C  16)           24.0637         0.089300   
    192. A(C  14,C   2,C  20)           28.7137         0.089344   
    193. A(C   0,C   2,C  12)           76.4143         0.097263   
    194. A(C  14,C   2,C  18)           24.8092         0.089400   
    195. A(C  14,C   2,C  22)           24.2180         0.089258   
    196. A(C   0,C   2,C  22)           68.7005         0.098476   
    197. A(C   0,C   2,C   4)          120.0000         0.437690   
    198. A(C   4,C   2,C  14)           68.6875         0.098488   
    199. A(C  16,C   2,C  22)           28.7101         0.089344   
    200. A(H   3,C   2,C   4)          119.9999         0.357403   
    201. A(C   0,C   2,C  14)           90.0303         0.098488   
    202. A(C   4,C   2,C  12)           76.3519         0.097263   
    203. A(C  20,C   2,C  22)           13.8966         0.089343   
    204. A(C   0,C   2,C  20)           75.0334         0.101636   
    205. A(C  12,C   2,C  14)           13.6161         0.089225   
    206. A(H   3,C   2,C  22)          111.2558         0.096294   
    207. A(C   4,C   2,C  20)           97.4011         0.101636   
    208. A(C  12,C   2,C  18)           28.0883         0.089349   
    209. A(C   0,C   2,C  16)           97.4105         0.101653   
    210. A(C   0,C   2,H   3)          120.0001         0.357403   
    211. A(C  14,C   4,C  20)           28.7107         0.089344   
    212. A(C  16,C   4,C  18)           14.9393         0.089533   
    213. A(H   5,C   4,C   6)          120.0001         0.357403   
    214. A(C   6,C   4,C  12)           68.6906         0.098488   
    215. A(C  12,C   4,C  16)           24.8093         0.089400   
    216. A(C   2,C   4,C  16)           89.9738         0.103709   
    217. A(C  12,C   4,C  20)           24.2183         0.089258   
    218. A(C   6,C   4,C  14)           75.0859         0.101654   
    219. A(H   5,C   4,C  18)           97.3551         0.098728   
    220. A(C   6,C   4,C  20)           89.9709         0.098477   
    221. A(C   2,C   4,C  12)           90.0320         0.098488   
    222. A(C   2,C   4,C   6)          120.0001         0.437690   
    223. A(C  16,C   4,C  20)           24.8029         0.089400   
    224. A(C   2,C   4,C  22)           76.4158         0.097263   
    225. A(H   5,C   4,C  14)           97.2975         0.098740   
    226. A(H   5,C   4,C  16)           89.9173         0.100322   
    227. A(C  12,C   4,C  22)           13.6162         0.089225   
    228. A(C  14,C   4,C  22)           24.0638         0.089300   
    229. A(C   6,C   4,C  16)           90.0293         0.103709   
    230. A(C   6,C   4,C  18)           97.4046         0.101638   
    231. A(C   2,C   4,C  14)           97.4123         0.101654   
    232. A(C  12,C   4,C  18)           28.7141         0.089344   
    233. A(C  18,C   4,C  22)           24.0638         0.089300   
    234. A(C   2,C   4,C  18)           75.0346         0.101638   
    235. A(C  12,C   4,C  14)           13.9002         0.089344   
    236. A(C  14,C   4,C  18)           25.8044         0.089459   
    237. A(H   5,C   4,C  12)          111.1977         0.096303   
    238. A(C   2,C   4,H   5)          119.9997         0.357403   
    239. A(C   6,C   4,C  22)           76.3548         0.097263   
    240. A(C  14,C   4,C  16)           14.9435         0.089534   
    241. A(H   5,C   4,C  20)          111.2519         0.096295   
    242. A(C   2,C   4,C  20)           68.7017         0.098477   
    243. A(H   5,C   4,C  22)          118.0057         0.095361   
    244. A(C  16,C   4,C  22)           28.0884         0.089349   
    245. A(C  20,C   4,C  22)           13.6162         0.089225   
    246. A(C  18,C   4,C  20)           13.8969         0.089343   
    247. A(C   8,C   6,C  20)           76.3579         0.097264   
    248. A(C  16,C   6,C  18)           13.8972         0.089344   
    249. A(C  14,C   6,C  18)           24.8034         0.089400   
    250. A(C  12,C   6,C  18)           28.7111         0.089344   
    251. A(C   8,C   6,C  18)           89.9742         0.098478   
    252. A(C   4,C   6,C  18)           68.6981         0.098478   
    253. A(C  12,C   6,C  16)           25.8045         0.089459   
    254. A(C   8,C   6,C  16)           97.4082         0.101639   
    255. A(H   7,C   6,C  16)           97.3531         0.098729   
    256. A(C   4,C   6,C  16)           75.0311         0.101639   
    257. A(C  12,C   6,C  14)           14.9433         0.089534   
    258. A(C   8,C   6,C  14)           90.0330         0.103709   
    259. A(H   7,C   6,C  14)           89.9151         0.100322   
    260. A(C   4,C   6,C  14)           89.9706         0.103709   
    261. A(H   7,C   6,C  12)           97.2952         0.098740   
    262. A(C   4,C   6,C  20)           76.4127         0.097264   
    263. A(C   8,C   6,C  12)           75.0897         0.101653   
    264. A(C   4,C   6,C  22)           90.0290         0.098488   
    265. A(C  14,C   6,C  22)           24.8092         0.089400   
    266. A(C  20,C   6,C  22)           13.6163         0.089225   
    267. A(C  18,C   6,C  22)           24.2184         0.089258   
    268. A(C   4,C   6,C  12)           97.4091         0.101653   
    269. A(C  14,C   6,C  16)           14.9395         0.089533   
    270. A(H   7,C   6,C   8)          120.0002         0.357404   
    271. A(C   4,C   6,C   8)          119.9999         0.437691   
    272. A(H   7,C   6,C  18)          111.2502         0.096296   
    273. A(H   7,C   6,C  20)          118.0037         0.095361   
    274. A(C   8,C   6,C  22)           68.6943         0.098488   
    275. A(C  16,C   6,C  22)           28.7141         0.089344   
    276. A(C  12,C   6,C  22)           13.9002         0.089344   
    277. A(C   4,C   6,H   7)          119.9999         0.357403   
    278. A(H   7,C   6,C  22)          111.1953         0.096303   
    279. A(C  18,C   6,C  20)           13.6163         0.089225   
    280. A(C  16,C   6,C  20)           24.0641         0.089300   
    281. A(C  14,C   6,C  20)           28.0887         0.089349   
    282. A(C  12,C   6,C  20)           24.0641         0.089300   
    283. A(H   9,C   8,C  10)          119.9999         0.357403   
    284. A(C  16,C   8,C  20)           24.2184         0.089258   
    285. A(C  10,C   8,C  22)           75.0922         0.101652   
    286. A(C   6,C   8,C  10)          120.0001         0.437691   
    287. A(C   6,C   8,C  22)           97.4054         0.101652   
    288. A(C   6,C   8,C  16)           68.6945         0.098478   
    289. A(H   9,C   8,C  16)          111.2516         0.096296   
    290. A(C   6,C   8,H   9)          120.0000         0.357403   
    291. A(C  12,C   8,C  14)           14.9393         0.089533   
    292. A(H   9,C   8,C  18)          118.0052         0.095361   
    293. A(C  20,C   8,C  22)           13.9002         0.089344   
    294. A(C   6,C   8,C  20)           90.0257         0.098487   
    295. A(C  14,C   8,C  22)           25.8040         0.089459   
    296. A(C  12,C   8,C  22)           14.9430         0.089534   
    297. A(H   9,C   8,C  22)           97.2963         0.098739   
    298. A(C  18,C   8,C  20)           13.6164         0.089225   
    299. A(H   9,C   8,C  12)           89.9164         0.100321   
    300. A(C  14,C   8,C  20)           28.7138         0.089344   
    301. A(C  12,C   8,C  20)           24.8090         0.089400   
    302. A(H   9,C   8,C  20)          111.1965         0.096303   
    303. A(C  16,C   8,C  18)           13.6164         0.089225   
    304. A(C  12,C   8,C  18)           28.0889         0.089349   
    305. A(C  10,C   8,C  18)           76.3598         0.097264   
    306. A(C   6,C   8,C  18)           76.4094         0.097264   
    307. A(C  14,C   8,C  16)           13.8973         0.089344   
    308. A(C  12,C   8,C  16)           24.8035         0.089400   
    309. A(C  14,C   8,C  18)           24.0642         0.089300   
    310. A(C  10,C   8,C  16)           89.9762         0.098478   
    311. A(C  16,C   8,C  22)           28.7109         0.089344   
    312. A(C  18,C   8,C  22)           24.0642         0.089300   
    313. A(C  10,C   8,C  20)           68.6965         0.098487   
    314. A(C  10,C   8,C  14)           97.4102         0.101638   
    315. A(H   9,C   8,C  14)           97.3544         0.098728   
    316. A(C   6,C   8,C  14)           75.0277         0.101638   
    317. A(C  10,C   8,C  12)           90.0351         0.103707   
    318. A(C   6,C   8,C  12)           89.9670         0.103707   
    319. A(H  11,C  10,C  14)          111.2566         0.096295   
    320. A(C   0,C  10,C  14)           89.9739         0.098477   
    321. A(C  14,C  10,C  18)           24.2181         0.089258   
    322. A(C   8,C  10,C  20)           97.4032         0.101651   
    323. A(C   8,C  10,C  22)           89.9649         0.103705   
    324. A(C   0,C  10,C  22)           90.0325         0.103705   
    325. A(C  18,C  10,C  20)           13.9003         0.089344   
    326. A(C  16,C  10,C  18)           13.6163         0.089225   
    327. A(C  12,C  10,C  14)           13.8971         0.089343   
    328. A(C   0,C  10,C  16)           76.3576         0.097264   
    329. A(H  11,C  10,C  20)           97.3018         0.098738   
    330. A(C   0,C  10,C  20)           75.0898         0.101651   
    331. A(C  12,C  10,C  18)           28.7135         0.089344   
    332. A(H  11,C  10,C  18)          111.2021         0.096303   
    333. A(C   0,C  10,C  18)           68.6940         0.098487   
    334. A(C  12,C  10,C  16)           24.0641         0.089299   
    335. A(C   8,C  10,C  14)           68.6929         0.098477   
    336. A(H  11,C  10,C  12)           97.3596         0.098727   
    337. A(C   8,C  10,C  12)           75.0261         0.101636   
    338. A(C   0,C  10,C  12)           97.4074         0.101636   
    339. A(C  16,C  10,C  20)           24.0640         0.089300   
    340. A(H  11,C  10,C  22)           89.9221         0.100319   
    341. A(C   8,C  10,C  16)           76.4075         0.097264   
    342. A(H  11,C  10,C  16)          118.0107         0.095361   
    343. A(C  12,C  10,C  20)           25.8034         0.089458   
    344. A(C  14,C  10,C  20)           28.7103         0.089344   
    345. A(C   8,C  10,C  18)           90.0238         0.098487   
    346. A(C  14,C  10,C  16)           13.6163         0.089225   
    347. A(C   8,C  10,H  11)          119.9998         0.357403   
    348. A(C  14,C  10,C  22)           24.8029         0.089400   
    349. A(C  12,C  10,C  22)           14.9388         0.089533   
    350. A(C   0,C  10,H  11)          120.0001         0.357403   
    351. A(C  16,C  10,C  22)           28.0887         0.089349   
    352. A(C   0,C  10,C   8)          120.0001         0.437691   
    353. A(C  20,C  10,C  22)           14.9427         0.089534   
    354. A(C  18,C  10,C  22)           24.8090         0.089400   
    355. A(C  14,C  12,C  22)          119.9999         0.437691   
    356. A(H  13,C  12,C  22)          120.0002         0.357403   
    357. A(C   0,C  12,C   4)           24.2180         0.089258   
    358. A(C   4,C  12,C   6)           13.9003         0.089344   
    359. A(C   2,C  12,C   6)           24.0637         0.089300   
    360. A(C   0,C  12,C   6)           28.7101         0.089344   
    361. A(C   2,C  12,C  22)           76.4142         0.097263   
    362. A(C   0,C  12,C   2)           13.6161         0.089225   
    363. A(C   2,C  12,C  14)           76.3524         0.097263   
    364. A(C   2,C  12,H  13)          118.0095         0.095361   
    365. A(C   8,C  12,C  10)           14.9388         0.089533   
    366. A(C   6,C  12,C  10)           25.8038         0.089459   
    367. A(C   4,C  12,C  10)           28.7138         0.089344   
    368. A(C   0,C  12,C  10)           13.8966         0.089343   
    369. A(C  10,C  12,C  14)           97.4017         0.101636   
    370. A(C  10,C  12,H  13)           97.3589         0.098727   
    371. A(C   0,C  12,C  22)           68.7004         0.098476   
    372. A(C   0,C  12,C  14)           89.9685         0.098476   
    373. A(C   0,C  12,H  13)          111.2555         0.096294   
    374. A(C   2,C  12,C  10)           24.0637         0.089299   
    375. A(H  13,C  12,C  14)          119.9998         0.357404   
    376. A(C  10,C  12,C  22)           75.0333         0.101636   
    377. A(C   2,C  12,C   4)           13.6161         0.089225   
    378. A(C   6,C  12,H  13)           97.3012         0.098740   
    379. A(C   4,C  12,C  22)           90.0303         0.098488   
    380. A(C   4,C  12,C  14)           68.6880         0.098488   
    381. A(C   4,C  12,H  13)          111.2015         0.096303   
    382. A(C   4,C  12,C   8)           24.8093         0.089400   
    383. A(C   6,C  12,C   8)           14.9433         0.089534   
    384. A(C   2,C  12,C   8)           28.0882         0.089349   
    385. A(C   6,C  12,C  14)           75.0834         0.101653   
    386. A(C   0,C  12,C   8)           24.8023         0.089400   
    387. A(C   8,C  12,C  22)           89.9720         0.103707   
    388. A(C   8,C  12,C  14)           90.0267         0.103707   
    389. A(C   8,C  12,H  13)           89.9213         0.100321   
    390. A(C   6,C  12,C  22)           97.4105         0.101653   
    391. A(C   4,C  14,C   6)           14.9435         0.089534   
    392. A(C   2,C  14,C   6)           24.8093         0.089400   
    393. A(C   0,C  14,C   6)           28.0884         0.089349   
    394. A(C   6,C  14,C  16)           90.0297         0.103709   
    395. A(C   6,C  14,H  15)           89.9173         0.100322   
    396. A(C   6,C  14,C  12)           89.9733         0.103709   
    397. A(C   0,C  14,C   2)           13.6162         0.089225   
    398. A(C   2,C  14,C  16)           68.6910         0.098488   
    399. A(C   4,C  14,C  10)           28.7107         0.089344   
    400. A(C   2,C  14,C  12)           90.0314         0.098488   
    401. A(C   0,C  14,C  16)           76.3551         0.097263   
    402. A(C   0,C  14,H  15)          118.0057         0.095361   
    403. A(C   0,C  14,C  12)           76.4153         0.097263   
    404. A(C   8,C  14,C  10)           13.8969         0.089343   
    405. A(C   6,C  14,C  10)           24.8029         0.089400   
    406. A(C   2,C  14,C  10)           24.2182         0.089258   
    407. A(C   0,C  14,C  10)           13.6162         0.089225   
    408. A(C  10,C  14,C  16)           89.9712         0.098477   
    409. A(C  10,C  14,H  15)          111.2521         0.096295   
    410. A(C  10,C  14,C  12)           68.7011         0.098477   
    411. A(H  15,C  14,C  16)          119.9997         0.357403   
    412. A(C  12,C  14,C  16)          120.0001         0.437691   
    413. A(C  12,C  14,H  15)          120.0001         0.357404   
    414. A(C   2,C  14,C   4)           13.9002         0.089344   
    415. A(C   0,C  14,C   4)           24.0638         0.089300   
    416. A(C   4,C  14,C  16)           75.0862         0.101654   
    417. A(C   4,C  14,H  15)           97.2975         0.098740   
    418. A(C   4,C  14,C  12)           97.4118         0.101654   
    419. A(C   6,C  14,C   8)           14.9393         0.089533   
    420. A(C   4,C  14,C   8)           25.8044         0.089459   
    421. A(C   2,C  14,C   8)           28.7140         0.089344   
    422. A(C   0,C  14,C   8)           24.0638         0.089300   
    423. A(C   8,C  14,C  16)           97.4049         0.101638   
    424. A(C   8,C  14,H  15)           97.3553         0.098728   
    425. A(C   8,C  14,C  12)           75.0340         0.101638   
    426. A(C   2,C  14,H  15)          111.1976         0.096303   
    427. A(C   4,C  16,C   6)           14.9395         0.089533   
    428. A(C   2,C  16,C   6)           25.8045         0.089459   
    429. A(C   0,C  16,C   6)           28.7140         0.089344   
    430. A(C   6,C  16,C  18)           97.4087         0.101639   
    431. A(C   6,C  16,H  17)           97.3543         0.098729   
    432. A(C   6,C  16,C  14)           75.0308         0.101639   
    433. A(C   0,C  16,C  18)           68.6948         0.098488   
    434. A(C   0,C  16,C   2)           13.9001         0.089344   
    435. A(C   2,C  16,C  18)           75.0903         0.101653   
    436. A(C   0,C  16,H  17)          111.1964         0.096303   
    437. A(C   2,C  16,H  17)           97.2963         0.098739   
    438. A(C   0,C  16,C  14)           90.0287         0.098488   
    439. A(H  17,C  16,C  18)          119.9999         0.357403   
    440. A(C   8,C  16,C  10)           13.6163         0.089225   
    441. A(C   6,C  16,C  10)           24.0640         0.089300   
    442. A(C   2,C  16,C  10)           24.0640         0.089300   
    443. A(C  10,C  16,C  18)           76.3584         0.097264   
    444. A(C   0,C  16,C  10)           13.6163         0.089225   
    445. A(C  10,C  16,H  17)          118.0048         0.095361   
    446. A(C  10,C  16,C  14)           76.4124         0.097264   
    447. A(C  14,C  16,H  17)          120.0000         0.357403   
    448. A(C   2,C  16,C   4)           14.9432         0.089534   
    449. A(C   0,C  16,C   4)           24.8091         0.089400   
    450. A(C   4,C  16,C  10)           28.0887         0.089349   
    451. A(C   4,C  16,C  18)           90.0335         0.103709   
    452. A(C   4,C  16,H  17)           89.9162         0.100322   
    453. A(C   4,C  16,C  14)           89.9703         0.103709   
    454. A(C   6,C  16,C   8)           13.8972         0.089344   
    455. A(C   4,C  16,C   8)           24.8035         0.089400   
    456. A(C   2,C  16,C   8)           28.7110         0.089344   
    457. A(C   0,C  16,C   8)           24.2184         0.089258   
    458. A(C   8,C  16,C  18)           89.9747         0.098478   
    459. A(C   8,C  16,H  17)          111.2514         0.096296   
    460. A(C   8,C  16,C  14)           68.6978         0.098478   
    461. A(C   2,C  16,C  14)           97.4087         0.101653   
    462. A(C  14,C  16,C  18)          120.0000         0.437690   
    463. A(C   0,C  18,C  20)           75.0916         0.101651   
    464. A(C   0,C  18,H  19)           97.2984         0.098738   
    465. A(C   4,C  18,C   6)           13.8973         0.089344   
    466. A(C   2,C  18,C   6)           24.8034         0.089400   
    467. A(C   0,C  18,C   6)           28.7109         0.089344   
    468. A(C   0,C  18,C  16)           97.4049         0.101651   
    469. A(C   6,C  18,C  20)           89.9756         0.098478   
    470. A(C   6,C  18,H  19)          111.2537         0.096296   
    471. A(C   6,C  18,C  16)           68.6941         0.098478   
    472. A(C   0,C  18,C   2)           14.9429         0.089534   
    473. A(C   2,C  18,C  20)           90.0345         0.103707   
    474. A(C   2,C  18,H  19)           89.9186         0.100321   
    475. A(C   2,C  18,C  16)           89.9665         0.103707   
    476. A(H  19,C  18,C  20)          120.0000         0.357403   
    477. A(C  16,C  18,C  20)          119.9999         0.437690   
    478. A(C  16,C  18,H  19)          120.0000         0.357403   
    479. A(C   8,C  18,C  10)           13.6164         0.089225   
    480. A(C   6,C  18,C  10)           24.2184         0.089258   
    481. A(C   4,C  18,C  10)           28.7137         0.089344   
    482. A(C   0,C  18,C  10)           13.9002         0.089344   
    483. A(C  10,C  18,C  20)           68.6959         0.098487   
    484. A(C  10,C  18,H  19)          111.1986         0.096303   
    485. A(C  10,C  18,C  16)           90.0253         0.098487   
    486. A(C   2,C  18,C   4)           14.9393         0.089533   
    487. A(C   0,C  18,C   4)           25.8039         0.089459   
    488. A(C   4,C  18,C  20)           97.4095         0.101638   
    489. A(C   4,C  18,H  19)           97.3564         0.098728   
    490. A(C   4,C  18,C  16)           75.0273         0.101638   
    491. A(C   6,C  18,C   8)           13.6164         0.089225   
    492. A(C   4,C  18,C   8)           24.0642         0.089300   
    493. A(C   2,C  18,C   8)           28.0889         0.089349   
    494. A(C   0,C  18,C   8)           24.0642         0.089300   
    495. A(C   8,C  18,C  20)           76.3592         0.097264   
    496. A(C   8,C  18,H  19)          118.0074         0.095361   
    497. A(C   8,C  18,C  16)           76.4089         0.097264   
    498. A(C   2,C  18,C  10)           24.8090         0.089400   
    499. A(C   6,C  20,C  22)           76.3568         0.097264   
    500. A(C   6,C  20,H  21)          118.0104         0.095361   
    501. A(C   2,C  20,C  22)           97.4066         0.101636   
    502. A(C   6,C  20,C  18)           76.4081         0.097264   
    503. A(C   2,C  20,H  21)           97.3593         0.098727   
    504. A(C   2,C  20,C  18)           75.0268         0.101636   
    505. A(C  18,C  20,H  21)          119.9999         0.357403   
    506. A(C   8,C  20,C  10)           13.9004         0.089344   
    507. A(C   4,C  20,C  10)           28.7103         0.089344   
    508. A(C   2,C  20,C  10)           25.8033         0.089458   
    509. A(C   0,C  20,C  10)           14.9427         0.089534   
    510. A(C  10,C  20,C  22)           75.0891         0.101651   
    511. A(C  10,C  20,H  21)           97.3015         0.098738   
    512. A(C  10,C  20,C  18)           97.4038         0.101651   
    513. A(C   2,C  20,C   4)           13.8971         0.089343   
    514. A(C   0,C  20,C   4)           24.8029         0.089400   
    515. A(C   4,C  20,C  22)           89.9731         0.098477   
    516. A(C   4,C  20,H  21)          111.2564         0.096295   
    517. A(C   4,C  20,C  18)           68.6936         0.098477   
    518. A(C   6,C  20,C   8)           13.6163         0.089225   
    519. A(C   4,C  20,C   8)           24.2181         0.089258   
    520. A(C   2,C  20,C   8)           28.7135         0.089344   
    521. A(C   0,C  20,C   8)           24.8090         0.089400   
    522. A(C   8,C  20,C  22)           68.6932         0.098487   
    523. A(C   8,C  20,H  21)          111.2018         0.096303   
    524. A(C   8,C  20,C  18)           90.0244         0.098487   
    525. A(C   6,C  20,C  10)           24.0641         0.089300   
    526. A(C   0,C  20,C  22)           90.0317         0.103705   
    527. A(C   0,C  20,H  21)           89.9218         0.100319   
    528. A(C   0,C  20,C  18)           89.9655         0.103705   
    529. A(H  21,C  20,C  22)          120.0000         0.357404   
    530. A(C   4,C  20,C   6)           13.6163         0.089225   
    531. A(C   2,C  20,C   6)           24.0641         0.089299   
    532. A(C   0,C  20,C   6)           28.0887         0.089349   
    533. A(C   0,C  20,C   2)           14.9387         0.089533   
    534. A(C  18,C  20,C  22)          120.0001         0.437690   
    535. A(C   6,C  22,C  10)           24.8092         0.089400   
    536. A(C   4,C  22,C  10)           28.0884         0.089348   
    537. A(C   2,C  22,C  10)           24.8023         0.089400   
    538. A(C   0,C  22,C  10)           14.9385         0.089533   
    539. A(C  10,C  22,H  23)           89.9232         0.100319   
    540. A(C  10,C  22,C  20)           89.9682         0.103705   
    541. A(C  10,C  22,C  12)           90.0279         0.103705   
    542. A(C   2,C  22,C   4)           13.6162         0.089225   
    543. A(C   0,C  22,C   4)           24.0638         0.089299   
    544. A(C   4,C  22,H  23)          118.0116         0.095361   
    545. A(C   4,C  22,C  20)           76.4107         0.097263   
    546. A(C   4,C  22,C  12)           76.3535         0.097263   
    547. A(C   6,C  22,C   8)           13.9003         0.089344   
    548. A(C   4,C  22,C   8)           24.0638         0.089300   
    549. A(C   2,C  22,C   8)           28.7099         0.089344   
    550. A(C   0,C  22,C   8)           25.8033         0.089458   
    551. A(C   8,C  22,H  23)           97.3030         0.098739   
    552. A(C   8,C  22,C  20)           97.4066         0.101652   
    553. A(C   8,C  22,C  12)           75.0850         0.101652   
    554. A(C   0,C  22,H  23)           97.3605         0.098726   
    555. A(C   0,C  22,C  20)           75.0298         0.101635   
    556. A(C   0,C  22,C  12)           97.4028         0.101635   
    557. A(C  20,C  22,H  23)          120.0000         0.357404   
    558. A(C  12,C  22,H  23)          120.0000         0.357403   
    559. A(C   0,C  22,C   2)           13.8968         0.089343   
    560. A(C   2,C  22,H  23)          111.2573         0.096294   
    561. A(C   2,C  22,C  20)           68.6967         0.098476   
    562. A(C   2,C  22,C  12)           89.9697         0.098476   
    563. A(C  12,C  22,C  20)          120.0000         0.437691   
    564. A(C   8,C  22,C  10)           14.9430         0.089534   
    565. A(C   4,C  22,C   6)           13.6162         0.089225   
    566. A(C   2,C  22,C   6)           24.2179         0.089258   
    567. A(C   0,C  22,C   6)           28.7135         0.089344   
    568. A(C   6,C  22,H  23)          111.2033         0.096303   
    569. A(C   6,C  22,C  20)           90.0269         0.098488   
    570. A(C   6,C  22,C  12)           68.6893         0.098488   
    571. D(H   3,C   2,C   0,H   1)      0.0007         0.065114   
    572. D(C   4,C   2,C   0,H   1)    179.9081         0.065114   
    573. D(H   3,C   2,C   0,C  10)   -179.9073         0.065114   
    574. D(C   6,C   4,C   2,C   0)      0.0005         0.065114   
    575. D(H   5,C   4,C   2,C   0)   -179.9076         0.065114   
    576. D(H   5,C   4,C   2,H   3)     -0.0002         0.065114   
    577. D(H   7,C   6,C   4,C   2)   -179.9071         0.065114   
    578. D(H   7,C   6,C   4,H   5)      0.0011         0.065114   
    579. D(C   8,C   6,C   4,C   2)     -0.0010         0.065114   
    580. D(H   9,C   8,C   6,C   4)   -179.9050         0.065114   
    581. D(H   9,C   8,C   6,H   7)      0.0011         0.065114   
    582. D(C  10,C   8,C   6,C   4)      0.0009         0.065114   
    583. D(C   8,C  10,C   0,H   1)   -179.9082         0.065114   
    584. D(H  11,C  10,C   0,H   1)     -0.0012         0.065114   
    585. D(C   0,C  10,C   8,H   9)    179.9056         0.065114   
    586. D(H  11,C  10,C   8,C   6)   -179.9073         0.065114   
    587. D(C   0,C  10,C   8,C   6)     -0.0003         0.065114   
    588. D(C   8,C  10,C   0,C   2)     -0.0002         0.065114   
    589. D(C  14,C  12,C   6,C   4)    -60.7090         0.001500   
    590. D(H  13,C  12,C   6,H   7)    -58.2214         0.001500   
    591. D(H  13,C  12,C   2,C   0)     63.1441         0.001500   
    592. D(H  13,C  12,C   2,H   3)   -179.8493         0.001500   
    593. D(C  14,C  12,C   2,C   0)   -179.8788         0.001500   
    594. D(H  13,C  12,C   4,H   5)   -114.9907         0.001500   
    595. D(H  13,C  12,C   4,C   2)    122.5637         0.001500   
    596. D(C  14,C  12,C   4,C   2)   -122.3279         0.001500   
    597. D(H  13,C  12,C   6,C   4)   -179.8876         0.001500   
    598. D(C  14,C  12,C   0,H   1)   -122.3146         0.001500   
    599. D(H  13,C  12,C   0,C   2)   -122.3130         0.001500   
    600. D(H  13,C  12,C   8,C   6)   -119.8670         0.001500   
    601. D(C  14,C  12,C   8,C   6)      0.1328         0.001500   
    602. D(C  14,C  12,C  10,C   0)    -58.1719         0.001500   
    603. D(H  13,C  12,C  10,C   8)    -60.6971         0.001500   
    604. D(H  13,C  12,C  10,C   0)   -179.8511         0.001500   
    605. D(H  13,C  12,C   0,H   1)    115.2546         0.001500   
    606. D(H  13,C  12,C   8,H   9)      0.1331         0.001500   
    607. D(C  12,C  14,C  10,C   8)   -114.9393         0.001500   
    608. D(H  15,C  14,C  12,C  22)   -179.9077         0.065114   
    609. D(H  15,C  14,C  10,C   0)   -122.3103         0.001500   
    610. D(C  16,C  14,C  12,H  13)    179.9079         0.065114   
    611. D(C  12,C  14,C  10,C   0)    122.5903         0.001500   
    612. D(H  15,C  14,C   8,C   6)    -60.6962         0.001500   
    613. D(C  12,C  14,C   8,H   9)    -60.6961         0.001500   
    614. D(C  12,C  14,C   8,C   6)   -179.8625         0.001500   
    615. D(H  15,C  14,C   6,C   4)   -119.8671         0.001500   
    616. D(C  12,C  14,C   6,C   4)    120.1327         0.001500   
    617. D(C  12,C  14,C   4,H   5)   -179.8894         0.001500   
    618. D(H  15,C  14,C   4,C   2)   -179.8891         0.001500   
    619. D(C  12,C  14,C   4,C   2)     58.4433         0.001500   
    620. D(H  15,C  14,C   2,C   0)    122.5635         0.001500   
    621. D(C  12,C  14,C   6,H   7)   -119.8673         0.001500   
    622. D(C  12,C  14,C   2,H   3)    122.5640         0.001500   
    623. D(C  12,C  14,C   2,C   0)      0.1178         0.001500   
    624. D(H  15,C  14,C  12,H  13)     -0.0000         0.065114   
    625. D(C  12,C  14,C   0,C   2)   -179.8788         0.001500   
    626. D(C  12,C  14,C   0,H   1)     63.1433         0.001500   
    627. D(H  15,C  14,C   0,H   1)   -179.8495         0.001500   
    628. D(C  14,C  16,C   2,H   3)   -179.8875         0.001500   
    629. D(C  14,C  16,C   2,C   0)     58.4443         0.001500   
    630. D(H  17,C  16,C   0,H   1)   -114.9903         0.001500   
    631. D(C  14,C  16,C   0,C   2)   -122.3261         0.001500   
    632. D(H  17,C  16,C   2,C   0)   -179.8892         0.001500   
    633. D(C  14,C  16,C   0,H   1)    122.5657         0.001500   
    634. D(C  18,C  16,C  14,C  12)     -0.0002         0.065114   
    635. D(H  17,C  16,C  14,H  15)      0.0002         0.065114   
    636. D(H  17,C  16,C  14,C  12)   -179.9078         0.065114   
    637. D(C  14,C  16,C  10,C   8)    -53.8586         0.001500   
    638. D(C  14,C  16,C  10,C   0)   -179.8757         0.001500   
    639. D(H  17,C  16,C   8,C   6)      0.1597         0.001500   
    640. D(C  14,C  16,C   6,C   4)   -179.8627         0.001500   
    641. D(H  17,C  16,C   6,C   4)    -60.6963         0.001500   
    642. D(C  14,C  16,C   6,H   7)    -60.6961         0.001500   
    643. D(C  14,C  16,C   8,H   9)      0.1588         0.001500   
    644. D(H  17,C  16,C  10,C   0)    -62.8701         0.001500   
    645. D(H  17,C  16,C   4,C   2)   -119.8672         0.001500   
    646. D(C  14,C  16,C   4,H   5)   -119.8674         0.001500   
    647. D(C  14,C  16,C   4,C   2)    120.1327         0.001500   
    648. D(C  14,C  16,C   8,C   6)   -114.9389         0.001500   
    649. D(C  20,C  18,C  16,C  14)      0.0000         0.065114   
    650. D(H  19,C  18,C  16,H  17)      0.0005         0.065114   
    651. D(H  19,C  18,C  16,C  14)   -179.9071         0.065114   
    652. D(H  19,C  18,C  10,C   0)      0.1195         0.001500   
    653. D(C  16,C  18,C  10,C   0)   -122.3235         0.001500   
    654. D(H  19,C  18,C   8,C   6)     63.1463         0.001500   
    655. D(C  16,C  18,C   8,H   9)     63.1465         0.001500   
    656. D(C  16,C  18,C   8,C   6)    -53.8577         0.001500   
    657. D(H  19,C  18,C   6,C   4)      0.1581         0.001500   
    658. D(C  16,C  18,C   6,H   7)      0.1598         0.001500   
    659. D(C  16,C  18,C   6,C   4)   -114.9390         0.001500   
    660. D(H  19,C  18,C   4,C   2)    -60.6967         0.001500   
    661. D(C  16,C  18,C   4,H   5)    -60.6967         0.001500   
    662. D(C  16,C  18,C   4,C   2)   -179.8626         0.001500   
    663. D(H  19,C  18,C   2,C   0)   -119.8672         0.001500   
    664. D(C  16,C  18,C  10,C   8)      0.1235         0.001500   
    665. D(C  16,C  18,C   2,H   3)   -119.8671         0.001500   
    666. D(C  16,C  18,C   2,C   0)    120.1327         0.001500   
    667. D(H  19,C  18,C   0,H   1)    -58.2199         0.001500   
    668. D(C  16,C  18,C   0,C   2)    -60.7081         0.001500   
    669. D(C  16,C  18,C   0,H   1)   -179.8861         0.001500   
    670. D(C  22,C  20,C  18,C  16)      0.0001         0.065113   
    671. D(H  21,C  20,C  18,C  16)   -179.9064         0.065113   
    672. D(H  21,C  20,C  10,C   0)     60.9587         0.001500   
    673. D(C  18,C  20,C  10,C   8)     58.4472         0.001500   
    674. D(C  18,C  20,C  10,C   0)    -60.7078         0.001500   
    675. D(H  21,C  20,C   8,C   6)    122.5665         0.001500   
    676. D(C  18,C  20,C   8,H   9)    122.5659         0.001500   
    677. D(C  18,C  20,C   8,C   6)      0.1232         0.001500   
    678. D(H  21,C  20,C   6,C   4)     63.1445         0.001500   
    679. D(C  18,C  20,C   6,H   7)     63.1467         0.001500   
    680. D(C  18,C  20,C   6,C   4)    -53.8590         0.001500   
    681. D(H  21,C  20,C   4,C   2)      0.1566         0.001500   
    682. D(C  18,C  20,C   4,H   5)      0.1596         0.001500   
    683. D(C  18,C  20,C   4,C   2)   -114.9396         0.001500   
    684. D(H  21,C  20,C   2,C   0)    -60.6974         0.001500   
    685. D(C  18,C  20,C   2,H   3)    -60.6972         0.001500   
    686. D(C  18,C  20,C   2,C   0)   -179.8625         0.001500   
    687. D(H  21,C  20,C   0,H   1)      0.1328         0.001500   
    688. D(H  21,C  20,C  18,H  19)      0.0007         0.065113   
    689. D(C  18,C  20,C   0,C   2)      0.1328         0.001500   
    690. D(C  18,C  20,C   0,H   1)   -119.8672         0.001500   
    691. D(C  20,C  22,C   2,C   0)   -114.9401         0.001500   
    692. D(C  12,C  22,C   2,H   3)   -122.3132         0.001500   
    693. D(C  12,C  22,C   2,C   0)    122.5886         0.001500   
    694. D(C  20,C  22,C   0,H   1)    -60.6982         0.001500   
    695. D(C  12,C  22,C   0,C   2)    -58.1727         0.001500   
    696. D(C  12,C  22,C   4,C   2)   -179.8791         0.001500   
    697. D(C  12,C  22,C   0,H   1)   -179.8532         0.001500   
    698. D(H  23,C  22,C  20,C  18)   -179.9069         0.065114   
    699. D(C  12,C  22,C  20,C  18)     -0.0000         0.065114   
    700. D(H  23,C  22,C  12,H  13)     -0.0010         0.065114   
    701. D(C  20,C  22,C  12,C  14)     -0.0002         0.065114   
    702. D(C  20,C  22,C  10,C   0)      0.1327         0.001500   
    703. D(C  12,C  22,C  10,C   8)      0.1327         0.001500   
    704. D(C  12,C  22,C  10,C   0)   -119.8673         0.001500   
    705. D(C  20,C  22,C   8,C   6)     58.4460         0.001500   
    706. D(C  12,C  22,C   8,H   9)     60.9576         0.001500   
    707. D(C  12,C  22,C   8,C   6)    -60.7081         0.001500   
    708. D(C  20,C  22,C  12,H  13)   -179.9078         0.065114   
    709. D(C  20,C  22,C   6,C   4)      0.1203         0.001500   
    710. D(C  12,C  22,C   6,H   7)      0.1174         0.001500   
    711. D(C  12,C  22,C   6,C   4)   -122.3264         0.001500   
    712. D(C  12,C  22,C  20,H  21)    179.9065         0.065114   
    713. D(C  20,C  22,C   4,C   2)    -53.8617         0.001500   
    714. D(C  12,C  22,C   4,H   5)    -62.8722         0.001500   
    -----------------------------------------------------------------

Number of atoms                         .... 24
Number of degrees of freedom            .... 714

         *************************************************************
         *                GEOMETRY OPTIMIZATION CYCLE   1            *
         *************************************************************
---------------------------------
CARTESIAN COORDINATES (ANGSTROEM)
---------------------------------
  C      0.001616    2.596754    1.385821
  H      0.002862    2.595341    2.461793
  C      1.200963    2.596684    0.691523
  H      2.133407    2.595206    1.228427
  C      1.199357    2.596577   -0.694291
  H      2.130554    2.595021   -1.233354
  C     -0.001595    2.596551   -1.385808
  H     -0.002839    2.594958   -2.461780
  C     -1.200941    2.596611   -0.691510
  H     -2.133384    2.595046   -1.228415
  C     -1.199335    2.596715    0.694304
  H     -2.130533    2.595254    1.233366
  C     -1.199359   -2.596667   -0.694303
  H     -2.130553   -2.595183   -1.233371
  C      0.001593   -2.596575   -1.385819
  H      0.002843   -2.595020   -2.461791
  C      1.200941   -2.596558   -0.691523
  H      2.133383   -2.594986   -1.228430
  C      1.199337   -2.596629    0.694290
  H      2.130533   -2.595104    1.233356
  C     -0.001616   -2.596718    1.385807
  H     -0.002862   -2.595251    2.461778
  C     -1.200964   -2.596737    0.691510
  H     -2.133405   -2.595291    1.228418

----------------------------
CARTESIAN COORDINATES (A.U.)
----------------------------
  NO LB      ZA    FRAG     MASS         X           Y           Z
   0 C     6.0000    0    12.011    0.003055    4.907153    2.618823
   1 H     1.0000    0     1.008    0.005408    4.904484    4.652114
   2 C     6.0000    0    12.011    2.269492    4.907021    1.306789
   3 H     1.0000    0     1.008    4.031555    4.904229    2.321391
   4 C     6.0000    0    12.011    2.266456    4.906820   -1.312020
   5 H     1.0000    0     1.008    4.026164    4.903879   -2.330700
   6 C     6.0000    0    12.011   -0.003015    4.906771   -2.618798
   7 H     1.0000    0     1.008   -0.005366    4.903759   -4.652089
   8 C     6.0000    0    12.011   -2.269450    4.906884   -1.306764
   9 H     1.0000    0     1.008   -4.031512    4.903927   -2.321367
  10 C     6.0000    0    12.011   -2.266416    4.907081    1.312044
  11 H     1.0000    0     1.008   -4.026123    4.904320    2.330725
  12 C     6.0000    0    12.011   -2.266461   -4.906990   -1.312043
  13 H     1.0000    0     1.008   -4.026163   -4.904186   -2.330733
  14 C     6.0000    0    12.011    0.003011   -4.906816   -2.618818
  15 H     1.0000    0     1.008    0.005372   -4.903877   -4.652110
  16 C     6.0000    0    12.011    2.269449   -4.906783   -1.306789
  17 H     1.0000    0     1.008    4.031509   -4.903813   -2.321396
  18 C     6.0000    0    12.011    2.266419   -4.906918    1.312019
  19 H     1.0000    0     1.008    4.026123   -4.904036    2.330704
  20 C     6.0000    0    12.011   -0.003055   -4.907086    2.618795
  21 H     1.0000    0     1.008   -0.005409   -4.904314    4.652087
  22 C     6.0000    0    12.011   -2.269492   -4.907122    1.306765
  23 H     1.0000    0     1.008   -4.031552   -4.904390    2.321373

--------------------------------
INTERNAL COORDINATES (ANGSTROEM)
--------------------------------
 C      0   0   0     0.000000000000     0.00000000     0.00000000
 H      1   0   0     1.075973079629     0.00000000     0.00000000
 C      1   2   0     1.385815004111   120.00006516     0.00000000
 H      3   1   2     1.075973705910   120.00006120     0.00000000
 C      3   1   2     1.385814965416   119.99999722   179.90809470
 H      5   3   1     1.075973828248   119.99974214   180.09236985
 C      5   3   1     1.385814397167   120.00007098     0.00000000
 H      7   5   3     1.075973612723   119.99986409   180.09292632
 C      7   5   3     1.385814014887   119.99990140     0.00000000
 H      9   7   5     1.075974064856   119.99998827   180.09498367
 C      9   7   5     1.385814365948   120.00006840     0.00000000
 H     11   9   7     1.075973443835   119.99979118   180.09270239
 C      9   7   5     5.193279627375    89.96698049   269.97940278
 H     13   9   7     1.075973564471    89.92131141   240.13302569
 C     13   9   7     1.385814101977    90.02668866     0.13284240
 H     15  13   9     1.075973593230   120.00012149   270.07542238
 C     15  13   9     1.385814506914   120.00007893    89.98336884
 H     17  15  13     1.075973810070   119.99998848   180.09222816
 C     17  15  13     1.385814355043   120.00000534     0.00000000
 H     19  17  15     1.075973434056   120.00001720   180.09292665
 C     19  17  15     1.385815278824   119.99990608     0.00000000
 H     21  19  17     1.075973379098   119.99990727   180.09357948
 C     21  19  17     1.385814195668   120.00006596     0.00000000
 H     23  21  19     1.075973465239   119.99995520   180.09313273

---------------------------
INTERNAL COORDINATES (A.U.)
---------------------------
 C      0   0   0     0.000000000000     0.00000000     0.00000000
 H      1   0   0     2.033294447970     0.00000000     0.00000000
 C      1   2   0     2.618810830049   120.00006516     0.00000000
 H      3   1   2     2.033295631470   120.00006120     0.00000000
 C      3   1   2     2.618810756926   119.99999722   179.90809470
 H      5   3   1     2.033295862655   119.99974214   180.09236985
 C      5   3   1     2.618809683091   120.00007098     0.00000000
 H      7   5   3     2.033295455372   119.99986409   180.09292632
 C      7   5   3     2.618808960685   119.99990140     0.00000000
 H      9   7   5     2.033296309780   119.99998827   180.09498367
 C      9   7   5     2.618809624095   120.00006840     0.00000000
 H     11   9   7     2.033295136221   119.99979118   180.09270239
 C      9   7   5     9.813876232611    89.96698049   269.97940278
 H     13   9   7     2.033295364189    89.92131141   240.13302569
 C     13   9   7     2.618809125262    90.02668866     0.13284240
 H     15  13   9     2.033295418536   120.00012149   270.07542238
 C     15  13   9     2.618809890483   120.00007893    89.98336884
 H     17  15  13     2.033295828305   119.99998848   180.09222816
 C     17  15  13     2.618809603487   120.00000534     0.00000000
 H     19  17  15     2.033295117741   120.00001720   180.09292665
 C     19  17  15     2.618811349180   119.99990608     0.00000000
 H     21  19  17     2.033295013885   119.99990727   180.09357948
 C     21  19  17     2.618809302313   120.00006596     0.00000000
 H     23  21  19     2.033295176668   119.99995520   180.09313273

---------------------
BASIS SET INFORMATION
---------------------
There are 2 groups of distinct atoms

 Group   1 Type C   : 10s4p1d contracted to 3s2p1d pattern {631/31/1}
 Group   2 Type H   : 4s1p contracted to 2s1p pattern {31/1}

Atom   0C    basis set group =>   1
Atom   1H    basis set group =>   2
Atom   2C    basis set group =>   1
Atom   3H    basis set group =>   2
Atom   4C    basis set group =>   1
Atom   5H    basis set group =>   2
Atom   6C    basis set group =>   1
Atom   7H    basis set group =>   2
Atom   8C    basis set group =>   1
Atom   9H    basis set group =>   2
Atom  10C    basis set group =>   1
Atom  11H    basis set group =>   2
Atom  12C    basis set group =>   1
Atom  13H    basis set group =>   2
Atom  14C    basis set group =>   1
Atom  15H    basis set group =>   2
Atom  16C    basis set group =>   1
Atom  17H    basis set group =>   2
Atom  18C    basis set group =>   1
Atom  19H    basis set group =>   2
Atom  20C    basis set group =>   1
Atom  21H    basis set group =>   2
Atom  22C    basis set group =>   1
Atom  23H    basis set group =>   2
------------------------------------------------------------------------------
                           ORCA GTO INTEGRAL CALCULATION
------------------------------------------------------------------------------

                         BASIS SET STATISTICS AND STARTUP INFO

 # of primitive gaussian shells          ...  240
 # of primitive gaussian functions       ...  408
 # of contracted shells                  ...  108
 # of contracted basis functions         ...  228
 Highest angular momentum                ...    2
 Maximum contraction depth               ...    6
 Integral package used                   ... LIBINT
 Integral threshhold            Thresh   ...  2.500e-11
 Primitive cut-off              TCut     ...  2.500e-12


------------------------------ INTEGRAL EVALUATION ----------------------------


 * One electron integrals 
 Pre-screening matrix                    ... done
 Shell pair data                         ... done (   0.003 sec)

-------------------------------------------------------------------------------
                                 ORCA SCF
-------------------------------------------------------------------------------

------------
SCF SETTINGS
------------
Hamiltonian:
 Ab initio Hamiltonian  Method          .... Hartree-Fock(GTOs)


General Settings:
 Integral files         IntName         .... benzene_dimer
 Hartree-Fock type      HFTyp           .... RHF
 Total Charge           Charge          ....    0
 Multiplicity           Mult            ....    1
 Number of Electrons    NEL             ....   84
 Basis Dimension        Dim             ....  228
 Nuclear Repulsion      ENuc            ....    575.6730384073 Eh

Convergence Acceleration:
 DIIS                   CNVDIIS         .... on
   Start iteration      DIISMaxIt       ....    12
   Startup error        DIISStart       ....  0.200000
   # of expansion vecs  DIISMaxEq       ....     5
   Bias factor          DIISBfac        ....   1.050
   Max. coefficient     DIISMaxC        ....  10.000
 Newton-Raphson         CNVNR           .... off
 SOSCF                  CNVSOSCF        .... on
   Start iteration      SOSCFMaxIt      ....   150
   Startup grad/error   SOSCFStart      ....  0.003300
 Level Shifting         CNVShift        .... on
   Level shift para.    LevelShift      ....    0.2500
   Turn off err/grad.   ShiftErr        ....    0.0010
 Zerner damping         CNVZerner       .... off
 Static damping         CNVDamp         .... on
   Fraction old density DampFac         ....    0.7000
   Max. Damping (<1)    DampMax         ....    0.9800
   Min. Damping (>=0)   DampMin         ....    0.0000
   Turn off err/grad.   DampErr         ....    0.1000
 Fernandez-Rico         CNVRico         .... off

SCF Procedure:
 Maximum # iterations   MaxIter         ....   125
 SCF integral mode      SCFMode         .... Direct
   Integral package                     .... LIBINT
 Reset frequeny         DirectResetFreq ....    20
 Integral Threshold     Thresh          ....  2.500e-11 Eh
 Primitive CutOff       TCut            ....  2.500e-12 Eh

Convergence Tolerance:
 Convergence Check Mode ConvCheckMode   .... Total+1el-Energy
 Convergence forced     ConvForced      .... 0
 Energy Change          TolE            ....  1.000e-08 Eh
 1-El. energy change                    ....  1.000e-05 Eh
 Orbital Gradient       TolG            ....  1.000e-05
 Orbital Rotation angle TolX            ....  1.000e-05
 DIIS Error             TolErr          ....  5.000e-07


Diagonalization of the overlap matrix:
Smallest eigenvalue                        ... 4.885e-04
Time for diagonalization                   ...    0.028 sec
Threshold for overlap eigenvalues          ... 1.000e-08
Number of eigenvalues below threshold      ... 0
Time for construction of square roots      ...    0.006 sec
Total time needed                          ...    0.034 sec

-------------------
DFT GRID GENERATION
-------------------

General Integration Accuracy     IntAcc      ...  4.340
Radial Grid Type                 RadialGrid  ... Gauss-Chebyshev
Angular Grid (max. acc.)         AngularGrid ... Lebedev-110
Angular grid pruning method      GridPruning ... 3 (G Style)
Weight generation scheme         WeightScheme... Becke
Basis function cutoff            BFCut       ...    1.0000e-11
Integration weight cutoff        WCut        ...    1.0000e-14
Grids for H and He will be reduced by one unit

# of grid points (after initial pruning)     ...  29400 (   0.0 sec)
# of grid points (after weights+screening)   ...  26800 (   0.2 sec)
nearest neighbour list constructed           ...    0.0 sec
Grid point re-assignment to atoms done       ...    0.0 sec
Grid point division into batches done        ...    0.0 sec
Reduced shell lists constructed in    0.6 sec

Total number of grid points                  ...    26800
Total number of batches                      ...      432
Average number of points per batch           ...       62
Average number of grid points per atom       ...     1117
Average number of shells per batch           ...    58.82 (54.46%)
Average number of basis functions per batch  ...   119.29 (52.32%)
Average number of large shells per batch     ...    38.24 (65.01%)
Average number of large basis fcns per batch ...    80.72 (67.67%)
Maximum spatial batch extension              ...  20.32, 22.44, 18.02 au
Average spatial batch extension              ...   3.51,  4.19,  3.22 au

Time for grid setup =    0.816 sec

------------------------------
INITIAL GUESS: MODEL POTENTIAL
------------------------------
Loading Hartree-Fock densities                     ... done
Calculating cut-offs                               ... done
Setting up the integral package                    ... done
Initializing the effective Hamiltonian             ... done
Starting the Coulomb interaction                   ... done (   0.5 sec)
Reading the grid                                   ... done
Mapping shells                                     ... done
Starting the XC term evaluation                    ... done (   0.4 sec)
Transforming the Hamiltonian                       ... done (   0.0 sec)
Diagonalizing the Hamiltonian                      ... done (   0.0 sec)
Back transforming the eigenvectors                 ... done (   0.0 sec)
Now organizing SCF variables                       ... done
                      ------------------
                      INITIAL GUESS DONE (   1.9 sec)
                      ------------------
--------------
SCF ITERATIONS
--------------
ITER       Energy         Delta-E        Max-DP      RMS-DP      [F,P]     Damp
               ***  Starting incremental Fock matrix formation  ***
  0   -460.9542099293   0.000000000000 0.03994288  0.00168114  0.1603936 0.7000
  1   -461.1158946653  -0.161684736079 0.03090385  0.00132391  0.1063619 0.7000
                               ***Turning on DIIS***
  2   -461.2169632485  -0.101068583198 0.06698456  0.00298910  0.0645549 0.0000
  3   -460.4783342420   0.738629006559 0.01121593  0.00060561  0.0252248 0.0000
  4   -461.3955463527  -0.917212110771 0.00305893  0.00021655  0.0043144 0.0000
                      *** Initiating the SOSCF procedure ***
                           *** Shutting down DIIS ***
                      *** Re-Reading the Fockian *** 
                      *** Removing any level shift *** 
ITER      Energy       Delta-E        Grad      Rot      Max-DP    RMS-DP
  5   -461.42486922  -0.0293228652  0.001796  0.001796  0.001458  0.000094
               *** Restarting incremental Fock matrix formation ***
  6   -461.42636367  -0.0014944522  0.000394  0.000355  0.000474  0.000029
  7   -461.42636752  -0.0000038517  0.000124  0.000143  0.000195  0.000011
  8   -461.42636793  -0.0000004090  0.000005  0.000004  0.000006  0.000000
                  ***Gradient check signals convergence***
              ***Rediagonalizing the Fockian in SOSCF/NRSCF***

               *****************************************************
               *                     SUCCESS                       *
               *           SCF CONVERGED AFTER   9 CYCLES          *
               *****************************************************


----------------
TOTAL SCF ENERGY
----------------

Total Energy       :         -461.42636794 Eh          -12556.04981 eV

Components:
Nuclear Repulsion  :          575.67303841 Eh           15664.85976 eV
Electronic Energy  :        -1037.09940634 Eh          -28220.90957 eV
One Electron Energy:        -1764.75469529 Eh          -48021.41662 eV
Two Electron Energy:          727.65528894 Eh           19800.50705 eV

Virial components:
Potential Energy   :         -922.82020016 Eh          -25111.21428 eV
Kinetic Energy     :          461.39383222 Eh           12555.16447 eV
Virial Ratio       :            2.00007052


---------------
SCF CONVERGENCE
---------------

  Last Energy change         ...   -5.5593e-09  Tolerance :   1.0000e-08
  Last MAX-Density change    ...    2.7297e-06  Tolerance :   1.0000e-07
  Last RMS-Density change    ...    1.2252e-07  Tolerance :   5.0000e-09
  Last Orbital Gradient      ...    1.4389e-06  Tolerance :   1.0000e-05
  Last Orbital Rotation      ...    1.5091e-06  Tolerance :   1.0000e-05

             **** THE GBW FILE WAS UPDATED (benzene_dimer.gbw) ****
             **** DENSITY FILE WAS UPDATED (benzene_dimer.scfp.tmp) ****
             **** ENERGY FILE WAS UPDATED (benzene_dimer.en.tmp) ****
----------------
ORBITAL ENERGIES
----------------

  NO   OCC          E(Eh)            E(eV) 
   0   2.0000     -11.224891      -305.4448 
   1   2.0000     -11.224891      -305.4448 
   2   2.0000     -11.224319      -305.4293 
   3   2.0000     -11.224319      -305.4293 
   4   2.0000     -11.224319      -305.4292 
   5   2.0000     -11.224319      -305.4292 
   6   2.0000     -11.223087      -305.3957 
   7   2.0000     -11.223087      -305.3957 
   8   2.0000     -11.223087      -305.3957 
   9   2.0000     -11.223087      -305.3957 
  10   2.0000     -11.222492      -305.3795 
  11   2.0000     -11.222492      -305.3795 
  12   2.0000      -1.144416       -31.1411 
  13   2.0000      -1.144333       -31.1389 
  14   2.0000      -1.007706       -27.4211 
  15   2.0000      -1.007706       -27.4211 
  16   2.0000      -1.007633       -27.4191 
  17   2.0000      -1.007633       -27.4191 
  18   2.0000      -0.816266       -22.2117 
  19   2.0000      -0.816266       -22.2117 
  20   2.0000      -0.816207       -22.2101 
  21   2.0000      -0.816206       -22.2101 
  22   2.0000      -0.703055       -19.1311 
  23   2.0000      -0.702976       -19.1290 
  24   2.0000      -0.635511       -17.2931 
  25   2.0000      -0.635438       -17.2911 
  26   2.0000      -0.610297       -16.6070 
  27   2.0000      -0.610277       -16.6065 
  28   2.0000      -0.579822       -15.7777 
  29   2.0000      -0.579821       -15.7777 
  30   2.0000      -0.579756       -15.7760 
  31   2.0000      -0.579756       -15.7760 
  32   2.0000      -0.495127       -13.4731 
  33   2.0000      -0.493160       -13.4196 
  34   2.0000      -0.485142       -13.2014 
  35   2.0000      -0.485142       -13.2014 
  36   2.0000      -0.485093       -13.2000 
  37   2.0000      -0.485093       -13.2000 
  38   2.0000      -0.327893        -8.9224 
  39   2.0000      -0.327893        -8.9224 
  40   2.0000      -0.325989        -8.8706 
  41   2.0000      -0.325989        -8.8706 
  42   0.0000       0.151551         4.1239 
  43   0.0000       0.151552         4.1239 
  44   0.0000       0.154163         4.1950 
  45   0.0000       0.154163         4.1950 
  46   0.0000       0.238286         6.4841 
  47   0.0000       0.239184         6.5085 
  48   0.0000       0.296241         8.0611 
  49   0.0000       0.296241         8.0611 
  50   0.0000       0.297320         8.0905 
  51   0.0000       0.297320         8.0905 
  52   0.0000       0.335146         9.1198 
  53   0.0000       0.335146         9.1198 
  54   0.0000       0.336213         9.1488 
  55   0.0000       0.336213         9.1488 
  56   0.0000       0.340164         9.2563 
  57   0.0000       0.341353         9.2887 
  58   0.0000       0.371612        10.1121 
  59   0.0000       0.374411        10.1883 
  60   0.0000       0.476533        12.9671 
  61   0.0000       0.476533        12.9671 
  62   0.0000       0.477140        12.9837 
  63   0.0000       0.477141        12.9837 
  64   0.0000       0.504073        13.7165 
  65   0.0000       0.504073        13.7165 
  66   0.0000       0.504472        13.7274 
  67   0.0000       0.504472        13.7274 
  68   0.0000       0.654007        17.7964 
  69   0.0000       0.655253        17.8303 
  70   0.0000       0.747106        20.3298 
  71   0.0000       0.750640        20.4260 
  72   0.0000       0.751124        20.4391 
  73   0.0000       0.769129        20.9291 
  74   0.0000       0.787023        21.4160 
  75   0.0000       0.787420        21.4268 
  76   0.0000       0.793912        21.6034 
  77   0.0000       0.794935        21.6313 
  78   0.0000       0.797068        21.6893 
  79   0.0000       0.801012        21.7967 
  80   0.0000       0.825837        22.4722 
  81   0.0000       0.825837        22.4722 
  82   0.0000       0.843083        22.9414 
  83   0.0000       0.843083        22.9415 
  84   0.0000       0.858168        23.3520 
  85   0.0000       0.858169        23.3520 
  86   0.0000       0.859857        23.3979 
  87   0.0000       0.859857        23.3979 
  88   0.0000       0.861322        23.4378 
  89   0.0000       0.861322        23.4378 
  90   0.0000       0.862789        23.4777 
  91   0.0000       0.862789        23.4777 
  92   0.0000       0.912162        24.8212 
  93   0.0000       0.912162        24.8212 
  94   0.0000       0.926274        25.2052 
  95   0.0000       0.926274        25.2052 
  96   0.0000       0.995786        27.0967 
  97   0.0000       1.007662        27.4199 
  98   0.0000       1.090821        29.6828 
  99   0.0000       1.090821        29.6828 
 100   0.0000       1.091547        29.7025 
 101   0.0000       1.091547        29.7025 
 102   0.0000       1.094427        29.7809 
 103   0.0000       1.094427        29.7809 
 104   0.0000       1.095407        29.8075 
[...]
 202   0.0000       3.134801        85.3023 
 203   0.0000       3.135075        85.3097 
 204   0.0000       3.187994        86.7497 
 205   0.0000       3.187994        86.7497 
 206   0.0000       3.189551        86.7921 
 207   0.0000       3.189552        86.7921 
 208   0.0000       3.444579        93.7318 
 209   0.0000       3.444579        93.7318 
 210   0.0000       3.444746        93.7363 
 211   0.0000       3.444746        93.7363 
 212   0.0000       3.567622        97.0799 
 213   0.0000       3.572604        97.2155 
 214   0.0000       3.627069        98.6976 
 215   0.0000       3.627366        98.7057 
 216   0.0000       3.643630        99.1482 
 217   0.0000       3.643630        99.1482 
 218   0.0000       3.643847        99.1541 
 219   0.0000       3.643848        99.1541 
 220   0.0000       3.805091       103.5418 
 221   0.0000       3.805209       103.5450 
 222   0.0000       3.934309       107.0580 
 223   0.0000       3.934310       107.0580 
 224   0.0000       3.934534       107.0641 
 225   0.0000       3.934535       107.0641 
 226   0.0000       4.430451       120.5587 
 227   0.0000       4.430752       120.5669 

                    ********************************
                    * MULLIKEN POPULATION ANALYSIS *
                    ********************************

-----------------------
MULLIKEN ATOMIC CHARGES
-----------------------
   0 C :   -0.145244
   1 H :    0.145245
   2 C :   -0.145245
   3 H :    0.145244
   4 C :   -0.145244
   5 H :    0.145244
   6 C :   -0.145244
   7 H :    0.145245
   8 C :   -0.145244
   9 H :    0.145245
  10 C :   -0.145245
  11 H :    0.145244
  12 C :   -0.145244
  13 H :    0.145245
  14 C :   -0.145245
  15 H :    0.145244
  16 C :   -0.145244
  17 H :    0.145244
  18 C :   -0.145244
  19 H :    0.145245
  20 C :   -0.145245
  21 H :    0.145245
  22 C :   -0.145245
  23 H :    0.145244
Sum of atomic charges:   -0.0000000

--------------------------------
MULLIKEN REDUCED ORBITAL CHARGES
--------------------------------
  0 C s       :     3.145107  s :     3.145107
      pz      :     1.052501  p :     2.955452
      px      :     0.915805
      py      :     0.987146
      dz2     :     0.013093  d :     0.044685
      dxz     :     0.013956
      dyz     :     0.003025
      dx2y2   :     0.007231
      dxy     :     0.007380
  1 H s       :     0.840928  s :     0.840928
      pz      :     0.009875  p :     0.013827
      px      :     0.001506
      py      :     0.002446
  2 C s       :     3.145108  s :     3.145108
      pz      :     0.949842  p :     2.955452
      px      :     1.018465
      py      :     0.987146
      dz2     :     0.011991  d :     0.044685
      dxz     :     0.015732
      dyz     :     0.006296
      dx2y2   :     0.006557
      dxy     :     0.004109
  3 H s       :     0.840929  s :     0.840929
      pz      :     0.003590  p :     0.013827
      px      :     0.007791
      py      :     0.002446
  4 C s       :     3.145107  s :     3.145107
      pz      :     0.950116  p :     2.955452
      px      :     1.018190
      py      :     0.987146
      dz2     :     0.011983  d :     0.044685
      dxz     :     0.015741
      dyz     :     0.006287
      dx2y2   :     0.006556
      dxy     :     0.004118
  5 H s       :     0.840929  s :     0.840929
      pz      :     0.003606  p :     0.013827
      px      :     0.007774
      py      :     0.002446
  6 C s       :     3.145107  s :     3.145107
      pz      :     1.052502  p :     2.955452
      px      :     0.915805
      py      :     0.987145
      dz2     :     0.013093  d :     0.044685
      dxz     :     0.013955
      dyz     :     0.003025
      dx2y2   :     0.007231
      dxy     :     0.007380
  7 H s       :     0.840928  s :     0.840928
      pz      :     0.009875  p :     0.013827
      px      :     0.001506
      py      :     0.002446
  8 C s       :     3.145107  s :     3.145107
      pz      :     0.949841  p :     2.955452
      px      :     1.018465
      py      :     0.987146
      dz2     :     0.011991  d :     0.044685
      dxz     :     0.015732
      dyz     :     0.006296
      dx2y2   :     0.006557
      dxy     :     0.004109
  9 H s       :     0.840928  s :     0.840928
      pz      :     0.003590  p :     0.013827
      px      :     0.007791
      py      :     0.002446
 10 C s       :     3.145108  s :     3.145108
      pz      :     0.950116  p :     2.955452
      px      :     1.018191
      py      :     0.987145
      dz2     :     0.011983  d :     0.044685
      dxz     :     0.015741
      dyz     :     0.006287
      dx2y2   :     0.006556
      dxy     :     0.004118
 11 H s       :     0.840929  s :     0.840929
      pz      :     0.003606  p :     0.013827
      px      :     0.007774
      py      :     0.002446
 12 C s       :     3.145107  s :     3.145107
      pz      :     0.950116  p :     2.955452
      px      :     1.018190
      py      :     0.987146
      dz2     :     0.011983  d :     0.044685
      dxz     :     0.015741
      dyz     :     0.006287
      dx2y2   :     0.006556
      dxy     :     0.004118
 13 H s       :     0.840928  s :     0.840928
      pz      :     0.003606  p :     0.013827
      px      :     0.007774
      py      :     0.002446
 14 C s       :     3.145108  s :     3.145108
      pz      :     1.052502  p :     2.955452
      px      :     0.915805
      py      :     0.987145
      dz2     :     0.013093  d :     0.044685
      dxz     :     0.013955
      dyz     :     0.003025
      dx2y2   :     0.007231
      dxy     :     0.007380
 15 H s       :     0.840929  s :     0.840929
      pz      :     0.009875  p :     0.013827
      px      :     0.001506
      py      :     0.002446
 16 C s       :     3.145107  s :     3.145107
      pz      :     0.949842  p :     2.955452
      px      :     1.018464
      py      :     0.987145
      dz2     :     0.011991  d :     0.044685
      dxz     :     0.015732
      dyz     :     0.006296
      dx2y2   :     0.006557
      dxy     :     0.004109
 17 H s       :     0.840929  s :     0.840929
      pz      :     0.003590  p :     0.013827
      px      :     0.007791
      py      :     0.002446
 18 C s       :     3.145107  s :     3.145107
      pz      :     0.950117  p :     2.955452
      px      :     1.018190
      py      :     0.987145
      dz2     :     0.011983  d :     0.044685
      dxz     :     0.015741
      dyz     :     0.006287
      dx2y2   :     0.006556
      dxy     :     0.004118
 19 H s       :     0.840928  s :     0.840928
      pz      :     0.003606  p :     0.013827
      px      :     0.007774
      py      :     0.002446
 20 C s       :     3.145107  s :     3.145107
      pz      :     1.052502  p :     2.955452
      px      :     0.915805
      py      :     0.987146
      dz2     :     0.013093  d :     0.044685
      dxz     :     0.013955
      dyz     :     0.003025
      dx2y2   :     0.007231
      dxy     :     0.007380
 21 H s       :     0.840928  s :     0.840928
      pz      :     0.009875  p :     0.013827
      px      :     0.001506
      py      :     0.002446
 22 C s       :     3.145108  s :     3.145108
      pz      :     0.949842  p :     2.955452
      px      :     1.018465
      py      :     0.987146
      dz2     :     0.011991  d :     0.044685
      dxz     :     0.015732
      dyz     :     0.006296
      dx2y2   :     0.006557
      dxy     :     0.004109
 23 H s       :     0.840929  s :     0.840929
      pz      :     0.003590  p :     0.013827
      px      :     0.007791
      py      :     0.002446


                     *******************************
                     * LOEWDIN POPULATION ANALYSIS *
                     *******************************

----------------------
LOEWDIN ATOMIC CHARGES
----------------------
   0 C :   -0.073508
   1 H :    0.073508
   2 C :   -0.073508
   3 H :    0.073508
   4 C :   -0.073508
   5 H :    0.073508
   6 C :   -0.073507
   7 H :    0.073508
   8 C :   -0.073508
   9 H :    0.073508
  10 C :   -0.073508
  11 H :    0.073508
  12 C :   -0.073508
  13 H :    0.073508
  14 C :   -0.073508
  15 H :    0.073507
  16 C :   -0.073508
  17 H :    0.073508
  18 C :   -0.073507
  19 H :    0.073508
  20 C :   -0.073508
  21 H :    0.073508
  22 C :   -0.073508
  23 H :    0.073508

-------------------------------
LOEWDIN REDUCED ORBITAL CHARGES
-------------------------------
  0 C s       :     2.886515  s :     2.886515
      pz      :     1.057564  p :     3.093192
      px      :     1.062761
      py      :     0.972867
      dz2     :     0.026787  d :     0.093801
      dxz     :     0.031625
      dyz     :     0.004390
      dx2y2   :     0.016091
      dxy     :     0.014908
  1 H s       :     0.884792  s :     0.884792
      pz      :     0.028201  p :     0.041700
      px      :     0.005666
      py      :     0.007833
  2 C s       :     2.886515  s :     2.886515
      pz      :     1.061467  p :     3.093192
      px      :     1.058858
      py      :     0.972867
      dz2     :     0.027336  d :     0.093801
      dxz     :     0.035294
      dyz     :     0.012289
      dx2y2   :     0.011872
      dxy     :     0.007009
  3 H s       :     0.884793  s :     0.884793
      pz      :     0.011277  p :     0.041700
      px      :     0.022590
      py      :     0.007833
  4 C s       :     2.886515  s :     2.886515
      pz      :     1.061457  p :     3.093192
      px      :     1.058868
      py      :     0.972867
      dz2     :     0.027312  d :     0.093801
      dxz     :     0.035314
      dyz     :     0.012268
      dx2y2   :     0.011876
      dxy     :     0.007030
  5 H s       :     0.884793  s :     0.884793
      pz      :     0.011322  p :     0.041700
      px      :     0.022545
      py      :     0.007833
  6 C s       :     2.886515  s :     2.886515
      pz      :     1.057564  p :     3.093191
      px      :     1.062761
      py      :     0.972866
      dz2     :     0.026787  d :     0.093801
      dxz     :     0.031625
      dyz     :     0.004390
      dx2y2   :     0.016091
      dxy     :     0.014908
  7 H s       :     0.884792  s :     0.884792
      pz      :     0.028201  p :     0.041700
      px      :     0.005666
      py      :     0.007833
  8 C s       :     2.886515  s :     2.886515
      pz      :     1.061467  p :     3.093192
      px      :     1.058858
      py      :     0.972867
      dz2     :     0.027336  d :     0.093801
      dxz     :     0.035294
      dyz     :     0.012289
      dx2y2   :     0.011872
      dxy     :     0.007009
  9 H s       :     0.884792  s :     0.884792
      pz      :     0.011277  p :     0.041700
      px      :     0.022590
      py      :     0.007833
 10 C s       :     2.886515  s :     2.886515
      pz      :     1.061457  p :     3.093192
      px      :     1.058868
      py      :     0.972867
      dz2     :     0.027312  d :     0.093801
      dxz     :     0.035314
      dyz     :     0.012268
      dx2y2   :     0.011876
      dxy     :     0.007030
 11 H s       :     0.884793  s :     0.884793
      pz      :     0.011322  p :     0.041700
      px      :     0.022545
      py      :     0.007833
 12 C s       :     2.886515  s :     2.886515
      pz      :     1.061457  p :     3.093192
      px      :     1.058868
      py      :     0.972867
      dz2     :     0.027312  d :     0.093801
      dxz     :     0.035314
      dyz     :     0.012268
      dx2y2   :     0.011876
      dxy     :     0.007030
 13 H s       :     0.884792  s :     0.884792
      pz      :     0.011322  p :     0.041700
      px      :     0.022545
      py      :     0.007833
 14 C s       :     2.886515  s :     2.886515
      pz      :     1.057563  p :     3.093192
      px      :     1.062761
      py      :     0.972867
      dz2     :     0.026787  d :     0.093801
      dxz     :     0.031625
      dyz     :     0.004390
      dx2y2   :     0.016091
      dxy     :     0.014908
 15 H s       :     0.884793  s :     0.884793
      pz      :     0.028201  p :     0.041700
      px      :     0.005666
      py      :     0.007833
 16 C s       :     2.886515  s :     2.886515
      pz      :     1.061467  p :     3.093192
      px      :     1.058858
      py      :     0.972867
      dz2     :     0.027336  d :     0.093801
      dxz     :     0.035294
      dyz     :     0.012289
      dx2y2   :     0.011872
      dxy     :     0.007009
 17 H s       :     0.884793  s :     0.884793
      pz      :     0.011277  p :     0.041700
      px      :     0.022590
      py      :     0.007833
 18 C s       :     2.886515  s :     2.886515
      pz      :     1.061457  p :     3.093191
      px      :     1.058868
      py      :     0.972866
      dz2     :     0.027312  d :     0.093801
      dxz     :     0.035314
      dyz     :     0.012268
      dx2y2   :     0.011876
      dxy     :     0.007030
 19 H s       :     0.884792  s :     0.884792
      pz      :     0.011322  p :     0.041700
      px      :     0.022545
      py      :     0.007833
 20 C s       :     2.886515  s :     2.886515
      pz      :     1.057564  p :     3.093192
      px      :     1.062761
      py      :     0.972867
      dz2     :     0.026787  d :     0.093801
      dxz     :     0.031625
      dyz     :     0.004390
      dx2y2   :     0.016091
      dxy     :     0.014908
 21 H s       :     0.884792  s :     0.884792
      pz      :     0.028201  p :     0.041700
      px      :     0.005666
      py      :     0.007833
 22 C s       :     2.886515  s :     2.886515
      pz      :     1.061467  p :     3.093192
      px      :     1.058858
      py      :     0.972867
      dz2     :     0.027336  d :     0.093801
      dxz     :     0.035294
      dyz     :     0.012289
      dx2y2   :     0.011872
      dxy     :     0.007009
 23 H s       :     0.884793  s :     0.884793
      pz      :     0.011277  p :     0.041700
      px      :     0.022590
      py      :     0.007833


                      *****************************
                      * MAYER POPULATION ANALYSIS *
                      *****************************

  NA   - Mulliken gross atomic population
  ZA   - Total nuclear charge
  QA   - Mulliken gross atomic charge
  VA   - Mayer's total valence
  BVA  - Mayer's bonded valence
  FA   - Mayer's free valence

  ATOM       NA         ZA         QA         VA         BVA        FA
  0 C      6.1452     6.0000    -0.1452     3.9268     3.9268    -0.0000
  1 H      0.8548     1.0000     0.1452     0.9541     0.9541     0.0000
  2 C      6.1452     6.0000    -0.1452     3.9268     3.9268     0.0000
  3 H      0.8548     1.0000     0.1452     0.9541     0.9541    -0.0000
  4 C      6.1452     6.0000    -0.1452     3.9268     3.9268     0.0000
  5 H      0.8548     1.0000     0.1452     0.9541     0.9541    -0.0000
  6 C      6.1452     6.0000    -0.1452     3.9268     3.9268    -0.0000
  7 H      0.8548     1.0000     0.1452     0.9541     0.9541     0.0000
  8 C      6.1452     6.0000    -0.1452     3.9268     3.9268    -0.0000
  9 H      0.8548     1.0000     0.1452     0.9541     0.9541    -0.0000
 10 C      6.1452     6.0000    -0.1452     3.9268     3.9268     0.0000
 11 H      0.8548     1.0000     0.1452     0.9541     0.9541    -0.0000
 12 C      6.1452     6.0000    -0.1452     3.9268     3.9268    -0.0000
 13 H      0.8548     1.0000     0.1452     0.9541     0.9541    -0.0000
 14 C      6.1452     6.0000    -0.1452     3.9268     3.9268    -0.0000
 15 H      0.8548     1.0000     0.1452     0.9541     0.9541     0.0000
 16 C      6.1452     6.0000    -0.1452     3.9268     3.9268    -0.0000
 17 H      0.8548     1.0000     0.1452     0.9541     0.9541    -0.0000
 18 C      6.1452     6.0000    -0.1452     3.9268     3.9268    -0.0000
 19 H      0.8548     1.0000     0.1452     0.9541     0.9541    -0.0000
 20 C      6.1452     6.0000    -0.1452     3.9268     3.9268    -0.0000
 21 H      0.8548     1.0000     0.1452     0.9541     0.9541     0.0000
 22 C      6.1452     6.0000    -0.1452     3.9268     3.9268     0.0000
 23 H      0.8548     1.0000     0.1452     0.9541     0.9541    -0.0000

  Mayer bond orders larger than 0.1
B(  0-C ,  1-H ) :   0.9631 B(  0-C ,  2-C ) :   1.4510 B(  0-C , 10-C ) :   1.4510 
B(  2-C ,  3-H ) :   0.9631 B(  2-C ,  4-C ) :   1.4510 B(  4-C ,  5-H ) :   0.9631 
B(  4-C ,  6-C ) :   1.4510 B(  6-C ,  7-H ) :   0.9631 B(  6-C ,  8-C ) :   1.4510 
B(  8-C ,  9-H ) :   0.9631 B(  8-C , 10-C ) :   1.4510 B( 10-C , 11-H ) :   0.9631 
B( 12-C , 13-H ) :   0.9631 B( 12-C , 14-C ) :   1.4510 B( 12-C , 22-C ) :   1.4510 
B( 14-C , 15-H ) :   0.9631 B( 14-C , 16-C ) :   1.4510 B( 16-C , 17-H ) :   0.9631 
B( 16-C , 18-C ) :   1.4510 B( 18-C , 19-H ) :   0.9631 B( 18-C , 20-C ) :   1.4510 
B( 20-C , 21-H ) :   0.9631 B( 20-C , 22-C ) :   1.4510 B( 22-C , 23-H ) :   0.9631 


-------
TIMINGS
-------

Total SCF time: 0 days 0 hours 0 min 30 sec 

Total time                  ....      30.760 sec
Sum of individual times     ....      30.549 sec  ( 99.3%)

Fock matrix formation       ....      30.256 sec  ( 98.4%)
Diagonalization             ....       0.027 sec  (  0.1%)
Density matrix formation    ....       0.004 sec  (  0.0%)
Population analysis         ....       0.195 sec  (  0.6%)
Initial guess               ....       0.019 sec  (  0.1%)
Orbital Transformation      ....       0.000 sec  (  0.0%)
Orbital Orthonormalization  ....       0.012 sec  (  0.0%)
DIIS solution               ....       0.004 sec  (  0.0%)
SOSCF solution              ....       0.044 sec  (  0.1%)

-------------------------   --------------------
FINAL SINGLE POINT ENERGY      -461.426370251646
-------------------------   --------------------

                                *** OPTIMIZATION RUN DONE ***

                            ***************************************
                            *     ORCA property calculations      *
                            ***************************************

                                    ---------------------
                                    Active property flags
                                    ---------------------
   (+) Dipole Moment


------------------------------------------------------------------------------
                       ORCA ELECTRIC PROPERTIES CALCULATION
------------------------------------------------------------------------------

Dipole Moment Calculation                       ... on
Quadrupole Moment Calculation                   ... off
Polarizability Calculation                      ... off
GBWName                                         ... benzene_dimer.gbw
Electron density file                           ... benzene_dimer.scfp.tmp
The origin for moment calculation is the CENTER OF MASS  = (-0.000000,  0.000001  0.000000)

-------------
DIPOLE MOMENT
-------------
                                X             Y             Z
Electronic contribution:     -0.00000       0.00001       0.00000
Nuclear contribution   :      0.00000      -0.00001      -0.00000
                        -----------------------------------------
Total Dipole Moment    :      0.00000      -0.00000       0.00000
                        -----------------------------------------
Magnitude (a.u.)       :      0.00000
Magnitude (Debye)      :      0.00001


Timings for individual modules:

Sum of individual times         ...      141.354 sec (=   2.356 min)
GTO integral calculation        ...        0.784 sec (=   0.013 min)   0.6 %
SCF iterations                  ...      111.938 sec (=   1.866 min)  79.2 %
SCF Gradient evaluation         ...       26.812 sec (=   0.447 min)  19.0 %
Geometry relaxation             ...        1.820 sec (=   0.030 min)   1.3 %
                             ****ORCA TERMINATED NORMALLY****
TOTAL RUN TIME: 0 days 0 hours 2 minutes 22 seconds 566 msec
