
                                 *****************
                                 * O   R   C   A *
                                 *****************

           --- An Ab Initio, DFT and Semiempirical electronic structure package ---

                  #######################################################
                  #                        -***-                        #
                  #  Department of molecular theory and spectroscopy    #
                  #              Directorship: Frank Neese              #
                  # Max Planck Institute for Chemical Energy Conversion #
                  #                  D-45470 Muelheim/Ruhr              #
                  #                       Germany                       #
                  #                                                     #
                  #                  All rights reserved                #
                  #                        -***-                        #
                  #######################################################


                         Program Version 4.0.1.2 - RELEASE -


 With contributions from (in alphabetic order):
   Daniel Aravena         : Magnetic Properties
   Michael Atanasov       : Ab Initio Ligand Field Theory
   Ute Becker             : Parallelization
   Martin Brehm           : Molecular dynamics
   Dmytro Bykov           : SCF Hessian
   Vijay G. Chilkuri      : MRCI spin determinant printing
   Dipayan Datta          : RHF DLPNO-CCSD density
   Achintya Kumar Dutta   : EOM-CC, STEOM-CC
   Dmitry Ganyushin       : Spin-Orbit,Spin-Spin,Magnetic field MRCI
   Yang Guo               : DLPNO-NEVPT2, CIM, IAO-localization
   Andreas Hansen         : Spin unrestricted coupled pair/coupled cluster methods
   Lee Huntington         : MR-EOM, pCC
   Robert Izsak           : Overlap fitted RIJCOSX, COSX-SCS-MP3, EOM
   Christian Kollmar      : KDIIS, OOCD, Brueckner-CCSD(T), CCSD density
   Simone Kossmann        : Meta GGA functionals, TD-DFT gradient, OOMP2, MP2 Hessian
   Martin Krupicka        : AUTO-CI
   Dagmar Lenk            : GEPOL surface
   Dimitrios Liakos       : Extrapolation schemes; parallel MDCI
   Dimitrios Manganas     : ROCIS; embedding schemes
   Dimitrios Pantazis     : SARC Basis sets
   Taras Petrenko         : DFT Hessian,TD-DFT gradient, ASA, ECA, R-Raman, ABS, FL, XAS/XES, NRVS
   Peter Pinski           : DLPNO-MP2
   Christoph Reimann      : Effective Core Potentials
   Marius Retegan         : Local ZFS, SOC
   Christoph Riplinger    : Optimizer, TS searches, QM/MM, DLPNO-CCSD(T), (RO)-DLPNO pert. Triples
   Tobias Risthaus        : Range-separated hybrids, TD-DFT gradient, RPA, STAB
   Michael Roemelt        : Restricted open shell CIS
   Masaaki Saitow         : Open-shell DLPNO
   Barbara Sandhoefer     : DKH picture change effects
   Kantharuban Sivalingam : CASSCF convergence, NEVPT2, FIC-MRCI
   Georgi Stoychev        : AutoAux
   Boris Wezisla          : Elementary symmetry handling
   Frank Wennmohs         : Technical directorship


 We gratefully acknowledge several colleagues who have allowed us to
 interface, adapt or use parts of their codes:
   Stefan Grimme, W. Hujo, H. Kruse,             : VdW corrections, initial TS optimization,
                  C. Bannwarth                     DFT functionals, gCP, sTDA/sTD-DF
   Ed Valeev                                     : LibInt (2-el integral package), F12 methods
   Garnet Chan, S. Sharma, J. Yang, R. Olivares  : DMRG
   Ulf Ekstrom                                   : XCFun DFT Library
   Mihaly Kallay                                 : mrcc  (arbitrary order and MRCC methods)
   Andreas Klamt, Michael Diedenhofen            : otool_cosmo (COSMO solvation model)
   Jiri Pittner, Ondrej Demel                    : Mk-CCSD
   Frank Weinhold                                : gennbo (NPA and NBO analysis)
   Christopher J. Cramer and Donald G. Truhlar   : smd solvation model


 Your calculation uses the libint2 library for the computation of 2-el integrals
 For citations please refer to: http://libint.valeyev.net

 This ORCA versions uses:
   CBLAS   interface :  Fast vector & matrix operations
   LAPACKE interface :  Fast linear algebra routines
   SCALAPACK package :  Parallel linear algebra routines


Your calculation utilizes the basis: 6-31G**
   H-He, Li-Ne : W. J. Hehre, R. Ditchfield and J.A. Pople, J. Chem. Phys. 56, 2257 (1972).
                 Note: He and Ne are unpublished basis sets taken from the Gaussian program.
                 Note: Li and B from J. D. Dill and J. A. Pople, J. Chem. Phys. 62, 2921 (1975).
   Na - Ar     : M. M. Francl, W. J. Pietro, W. J. Hehre, J. S. Binkley, M. S. Gordon, 
                 D. J. DeFrees and J. A. Pople, J. Chem. Phys. 77, 3654 (1982).
   K - Zn      : V. A. Rassolov, J. A. Pople, M. A. Ratner, and T. L. Windus, J. Chem. Phys. 109, 1223 (1998).

Your calculation utilizes the auxiliary basis: def2/J
   F. Weigend, Phys. Chem. Chem. Phys. 8, 1057 (2006).

================================================================================
                                        WARNINGS
                       Please study these warnings very carefully!
================================================================================

Warning: TCutStore was < 0. Adjusted to Thresh (uncritical)

WARNING: Geometry Optimization
  ===> : Switching off AutoStart
         For restart on a previous wavefunction, please use MOREAD

INFO   : the flag for use of LIBINT has been found!

================================================================================
                                       INPUT FILE
================================================================================
NAME = benzene_dimer.inp
|  1> !PBE 6-31G** Opt
|  2> 
|  3> *xyz 0 1
|  4> C      0.000000000000     1.950000000000     1.391500000000
|  5> H      0.000000000000     1.950000000000     2.471500000000
|  6> C      1.205074349366     1.950000000000     0.695750000000
|  7> H      2.140381785453     1.950000000000     1.235750000000
|  8> C      1.205074349366     1.950000000000    -0.695750000000
|  9> H      2.140381785453     1.950000000000    -1.235750000000
| 10> C     -0.000000000000     1.950000000000    -1.391500000000
| 11> H     -0.000000000000     1.950000000000    -2.471500000000
| 12> C     -1.205074349366     1.950000000000    -0.695750000000
| 13> H     -2.140381785453     1.950000000000    -1.235750000000
| 14> C     -1.205074349366     1.950000000000     0.695750000000
| 15> H     -2.140381785453     1.950000000000     1.235750000000
| 16> C     -1.205074349366    -1.950000000000    -0.695750000000
| 17> H     -2.140381785453    -1.950000000000    -1.235750000000
| 18> C     -0.000000000000    -1.950000000000    -1.391500000000
| 19> H     -0.000000000000    -1.950000000000    -2.471500000000
| 20> C      1.205074349366    -1.950000000000    -0.695750000000
| 21> H      2.140381785453    -1.950000000000    -1.235750000000
| 22> C      1.205074349366    -1.950000000000     0.695750000000
| 23> H      2.140381785453    -1.950000000000     1.235750000000
| 24> C     -0.000000000000    -1.950000000000     1.391500000000
| 25> H     -0.000000000000    -1.950000000000     2.471500000000
| 26> C     -1.205074349366    -1.950000000000     0.695750000000
| 27> H     -2.140381785453    -1.950000000000     1.235750000000
| 28> *
| 29> 
| 30>                          ****END OF INPUT****
================================================================================

                       *****************************
                       * Geometry Optimization Run *
                       *****************************

Geometry optimization settings:
Update method            Update   .... BFGS
Choice of coordinates    CoordSys .... Redundant Internals
Initial Hessian          InHess   .... Almoef's Model

Convergence Tolerances:
Energy Change            TolE     ....  5.0000e-06 Eh
Max. Gradient            TolMAXG  ....  3.0000e-04 Eh/bohr
RMS Gradient             TolRMSG  ....  1.0000e-04 Eh/bohr
Max. Displacement        TolMAXD  ....  4.0000e-03 bohr
RMS Displacement         TolRMSD  ....  2.0000e-03 bohr

------------------------------------------------------------------------------
                        ORCA OPTIMIZATION COORDINATE SETUP
------------------------------------------------------------------------------

The optimization will be done in new redundant internal coordinates
Making redundant internal coordinates   ...  (new redundants) done
Evaluating the initial hessian          ...  (Almloef) done
Evaluating the coordinates              ...  done
Calculating the B-matrix                .... done
Calculating the G-matrix                .... done
Diagonalizing the G-matrix              .... done
The first mode is                       ....  624
The number of degrees of freedom        ....   66

    -----------------------------------------------------------------
                    Redundant Internal Coordinates


    -----------------------------------------------------------------
         Definition                    Initial Value    Approx d2E/dq
    -----------------------------------------------------------------
      1. B(H   1,C   0)                  1.0800         0.373575   
      2. B(C   2,C   0)                  1.3915         0.621363   
      3. B(H   3,C   2)                  1.0800         0.373575   
      4. B(C   4,C   2)                  1.3915         0.621363   
      5. B(H   5,C   4)                  1.0800         0.373575   
      6. B(C   6,C   4)                  1.3915         0.621363   
      7. B(H   7,C   6)                  1.0800         0.373575   
      8. B(C   8,C   6)                  1.3915         0.621363   
      9. B(H   9,C   8)                  1.0800         0.373575   
     10. B(C  10,C   8)                  1.3915         0.621363   
     11. B(C  10,C   0)                  1.3915         0.621363   
     12. B(H  11,C  10)                  1.0800         0.373575   
     13. B(C  12,C  10)                  4.1408         0.000026   
     14. B(C  12,C   8)                  3.9000         0.000062   
     15. B(C  12,C   4)                  4.5846         0.000005   
     16. B(C  12,C   6)                  4.1408         0.000026   
     17. B(C  12,C   2)                  4.7911         0.000002   
     18. B(C  12,H   9)                  4.0468         0.000007   
     19. B(C  12,C   0)                  4.5846         0.000005   
     20. B(C  12,H   7)                  4.4515         0.000002   
     21. B(C  12,H  11)                  4.4515         0.000002   
     22. B(H  13,H   7)                  4.6172         0.000000   
     23. B(H  13,C  10)                  4.4515         0.000002   
     24. B(H  13,H  11)                  4.6172         0.000000   
     25. B(H  13,C  12)                  1.0800         0.373575   
     26. B(H  13,C   6)                  4.4515         0.000002   
     27. B(H  13,C   8)                  4.0468         0.000007   
     28. B(H  13,H   9)                  3.9000         0.000002   
     29. B(C  14,C   2)                  4.5846         0.000005   
     30. B(C  14,C  12)                  1.3915         0.621363   
     31. B(C  14,H   9)                  4.4515         0.000002   
     32. B(C  14,C  10)                  4.5846         0.000005   
     33. B(C  14,H   5)                  4.4515         0.000002   
     34. B(C  14,C   0)                  4.7911         0.000002   
     35. B(C  14,C   8)                  4.1408         0.000026   
     36. B(C  14,H   7)                  4.0468         0.000007   
     37. B(C  14,C   4)                  4.1408         0.000026   
     38. B(C  14,C   6)                  3.9000         0.000062   
     39. B(H  15,C  14)                  1.0800         0.373575   
     40. B(H  15,C   4)                  4.4515         0.000002   
     41. B(H  15,H   9)                  4.6172         0.000000   
     42. B(H  15,C   8)                  4.4515         0.000002   
     43. B(H  15,H   7)                  3.9000         0.000002   
     44. B(H  15,C   6)                  4.0468         0.000007   
     45. B(H  15,H   5)                  4.6172         0.000000   
     46. B(C  16,C   4)                  3.9000         0.000062   
     47. B(C  16,C   0)                  4.5846         0.000005   
     48. B(C  16,C  10)                  4.7911         0.000002   
     49. B(C  16,H   3)                  4.4515         0.000002   
     50. B(C  16,C   8)                  4.5846         0.000005   
     51. B(C  16,C   2)                  4.1408         0.000026   
     52. B(C  16,H   7)                  4.4515         0.000002   
     53. B(C  16,C   6)                  4.1408         0.000026   
     54. B(C  16,C  14)                  1.3915         0.621363   
     55. B(C  16,H   5)                  4.0468         0.000007   
     56. B(H  17,C   4)                  4.0468         0.000007   
     57. B(H  17,H   3)                  4.6172         0.000000   
     58. B(H  17,C   2)                  4.4515         0.000002   
     59. B(H  17,H   7)                  4.6172         0.000000   
     60. B(H  17,C   6)                  4.4515         0.000002   
     61. B(H  17,C  16)                  1.0800         0.373575   
     62. B(H  17,H   5)                  3.9000         0.000002   
     63. B(C  18,C   4)                  4.1408         0.000026   
     64. B(C  18,C   0)                  4.1408         0.000026   
     65. B(C  18,H   3)                  4.0468         0.000007   
     66. B(C  18,C   8)                  4.7911         0.000002   
     67. B(C  18,C   2)                  3.9000         0.000062   
     68. B(C  18,C  10)                  4.5846         0.000005   
     69. B(C  18,C   6)                  4.5846         0.000005   
     70. B(C  18,C  16)                  1.3915         0.621363   
     71. B(C  18,H   1)                  4.4515         0.000002   
     72. B(C  18,H   5)                  4.4515         0.000002   
     73. B(H  19,C   4)                  4.4515         0.000002   
     74. B(H  19,C   0)                  4.4515         0.000002   
     75. B(H  19,H   3)                  3.9000         0.000002   
     76. B(H  19,C   2)                  4.0468         0.000007   
     77. B(H  19,C  18)                  1.0800         0.373575   
     78. B(H  19,H   1)                  4.6172         0.000000   
     79. B(H  19,H   5)                  4.6172         0.000000   
     80. B(C  20,C   4)                  4.5846         0.000005   
     81. B(C  20,C   0)                  3.9000         0.000062   
     82. B(C  20,H  11)                  4.4515         0.000002   
     83. B(C  20,H   3)                  4.4515         0.000002   
     84. B(C  20,C  10)                  4.1408         0.000026   
     85. B(C  20,C   2)                  4.1408         0.000026   
     86. B(C  20,C   8)                  4.5846         0.000005   
     87. B(C  20,C  18)                  1.3915         0.621363   
     88. B(C  20,C   6)                  4.7911         0.000002   
     89. B(C  20,H   1)                  4.0468         0.000007   
     90. B(H  21,C   0)                  4.0468         0.000007   
     91. B(H  21,H  11)                  4.6172         0.000000   
     92. B(H  21,H   3)                  4.6172         0.000000   
     93. B(H  21,C  10)                  4.4515         0.000002   
     94. B(H  21,C   2)                  4.4515         0.000002   
     95. B(H  21,C  20)                  1.0800         0.373575   
     96. B(H  21,H   1)                  3.9000         0.000002   
     97. B(C  22,C   4)                  4.7911         0.000002   
     98. B(C  22,H  11)                  4.0468         0.000007   
     99. B(C  22,C  10)                  3.9000         0.000062   
    100. B(C  22,H   9)                  4.4515         0.000002   
    101. B(C  22,C   2)                  4.5846         0.000005   
    102. B(C  22,C   8)                  4.1408         0.000026   
    103. B(C  22,C  20)                  1.3915         0.621363   
    104. B(C  22,C  12)                  1.3915         0.621363   
    105. B(C  22,C   6)                  4.5846         0.000005   
    106. B(C  22,H   1)                  4.4515         0.000002   
    107. B(C  22,C   0)                  4.1408         0.000026   
    108. B(H  23,H  11)                  3.9000         0.000002   
    109. B(H  23,C  10)                  4.0468         0.000007   
    110. B(H  23,H   9)                  4.6172         0.000000   
    111. B(H  23,C  22)                  1.0800         0.373575   
    112. B(H  23,C   8)                  4.4515         0.000002   
    113. B(H  23,H   1)                  4.6172         0.000000   
    114. B(H  23,C   0)                  4.4515         0.000002   
    115. A(C   2,C   0,C  22)           99.6729         0.124119   
    116. A(H   1,C   0,C   2)          120.0000         0.355245   
    117. A(H   1,C   0,C  16)          117.0824         0.107716   
    118. A(C  18,C   0,C  22)           33.8386         0.092571   
    119. A(C  12,C   0,C  14)           16.8838         0.090438   
    120. A(C   2,C   0,C  12)           90.0000         0.113281   
    121. A(H   1,C   0,C  10)          120.0000         0.355245   
    122. A(C  14,C   0,C  22)           30.2015         0.091079   
    123. A(C  14,C   0,C  16)           16.8838         0.090438   
    124. A(C  16,C   0,C  20)           31.7155         0.092016   
    125. A(C  14,C   0,C  18)           30.2015         0.091079   
    126. A(C  16,C   0,C  18)           17.4095         0.091469   
    127. A(C  12,C   0,C  22)           17.4095         0.091469   
    128. A(C  14,C   0,C  20)           35.5113         0.091540   
    129. A(H   1,C   0,C  12)          117.0824         0.107716   
    130. A(H   1,C   0,C  22)           99.6729         0.116070   
    131. A(C  10,C   0,C  16)           90.0000         0.113281   
    132. A(C  18,C   0,C  20)           19.6361         0.093362   
    133. A(C   2,C   0,C  14)           73.1162         0.109450   
    134. A(C  10,C   0,C  12)           62.9176         0.113281   
    135. A(H   1,C   0,C  18)           99.6729         0.116070   
    136. A(H   1,C   0,C  14)          125.5113         0.104763   
    137. A(C  10,C   0,C  20)           90.0000         0.131904   
    138. A(C  10,C   0,C  22)           70.3639         0.124119   
    139. A(C  20,C   0,C  22)           19.6361         0.093362   
    140. A(C  12,C   0,C  16)           30.4786         0.090707   
    141. A(C  12,C   0,C  18)           36.7553         0.091469   
    142. A(C   2,C   0,C  18)           70.3639         0.124119   
    143. A(C  10,C   0,C  14)           73.1162         0.109450   
    144. A(C  12,C   0,C  20)           31.7155         0.092016   
    145. A(C   2,C   0,C  10)          120.0000         0.434409   
    146. A(C   2,C   0,C  16)           62.9176         0.113281   
    147. A(H   1,C   0,C  20)           90.0000         0.122071   
    148. A(C   2,C   0,C  20)           90.0000         0.131904   
    149. A(C  16,C   0,C  22)           36.7553         0.091469   
    150. A(C  10,C   0,C  18)           99.6729         0.124119   
    151. A(H   3,C   2,C  16)           99.6729         0.116070   
    152. A(C  14,C   2,C  16)           17.4095         0.091469   
    153. A(C   0,C   2,C  18)           90.0000         0.131904   
    154. A(H   3,C   2,C  14)          117.0824         0.107716   
    155. A(H   3,C   2,C  20)           99.6729         0.116070   
    156. A(H   3,C   2,C  18)           90.0000         0.122071   
    157. A(C   4,C   2,C  18)           90.0000         0.131904   
    158. A(C  18,C   2,C  22)           31.7155         0.092016   
    159. A(C   4,C   2,C  16)           70.3639         0.124119   
    160. A(C   4,C   2,C  22)           90.0000         0.113281   
    161. A(H   3,C   2,C  12)          125.5113         0.104763   
    162. A(C  12,C   2,C  22)           16.8838         0.090438   
    163. A(C  16,C   2,C  18)           19.6361         0.093362   
    164. A(C  16,C   2,C  20)           33.8386         0.092571   
    165. A(C  18,C   2,C  20)           19.6361         0.093362   
    166. A(C  12,C   2,C  20)           30.2015         0.091079   
    167. A(C  12,C   2,C  16)           30.2015         0.091079   
    168. A(C  14,C   2,C  20)           36.7553         0.091469   
    169. A(C   0,C   2,C  12)           73.1162         0.109450   
    170. A(C  14,C   2,C  18)           31.7155         0.092016   
    171. A(C  14,C   2,C  22)           30.4786         0.090707   
    172. A(C   0,C   2,C  22)           62.9176         0.113281   
    173. A(C   0,C   2,C   4)          120.0000         0.434409   
    174. A(C   4,C   2,C  14)           62.9176         0.113281   
    175. A(C  16,C   2,C  22)           36.7553         0.091469   
    176. A(H   3,C   2,C   4)          120.0000         0.355245   
    177. A(C   0,C   2,C  14)           90.0000         0.113281   
    178. A(C   4,C   2,C  12)           73.1162         0.109450   
    179. A(C  20,C   2,C  22)           17.4095         0.091469   
    180. A(C   0,C   2,C  20)           70.3639         0.124119   
    181. A(C  12,C   2,C  14)           16.8838         0.090438   
    182. A(H   3,C   2,C  22)          117.0824         0.107716   
    183. A(C   4,C   2,C  20)           99.6729         0.124119   
    184. A(C  12,C   2,C  18)           35.5113         0.091540   
    185. A(C   0,C   2,C  16)           99.6729         0.124119   
    186. A(C   0,C   2,H   3)          120.0000         0.355245   
    187. A(C  14,C   4,C  20)           36.7553         0.091469   
    188. A(C  16,C   4,C  18)           19.6361         0.093362   
    189. A(H   5,C   4,C   6)          120.0000         0.355245   
    190. A(C   6,C   4,C  12)           62.9176         0.113281   
    191. A(C  12,C   4,C  16)           31.7155         0.092016   
    192. A(C   2,C   4,C  16)           90.0000         0.131904   
    193. A(C  12,C   4,C  20)           30.4786         0.090707   
    194. A(C   6,C   4,C  14)           70.3639         0.124119   
    195. A(H   5,C   4,C  18)           99.6729         0.116070   
    196. A(C   6,C   4,C  20)           90.0000         0.113281   
    197. A(C   2,C   4,C  12)           90.0000         0.113281   
    198. A(C   2,C   4,C   6)          120.0000         0.434409   
    199. A(C  16,C   4,C  20)           31.7155         0.092016   
    200. A(C   2,C   4,C  22)           73.1162         0.109450   
    201. A(H   5,C   4,C  14)           99.6729         0.116070   
    202. A(H   5,C   4,C  16)           90.0000         0.122071   
    203. A(C  12,C   4,C  22)           16.8838         0.090438   
    204. A(C  14,C   4,C  22)           30.2015         0.091079   
    205. A(C   6,C   4,C  16)           90.0000         0.131904   
    206. A(C   6,C   4,C  18)           99.6729         0.124119   
    207. A(C   2,C   4,C  14)           99.6729         0.124119   
    208. A(C  12,C   4,C  18)           36.7553         0.091469   
    209. A(C  18,C   4,C  22)           30.2015         0.091079   
    210. A(C   2,C   4,C  18)           70.3639         0.124119   
    211. A(C  12,C   4,C  14)           17.4095         0.091469   
    212. A(C  14,C   4,C  18)           33.8386         0.092571   
    213. A(H   5,C   4,C  12)          117.0824         0.107716   
    214. A(C   2,C   4,H   5)          120.0000         0.355245   
    215. A(C   6,C   4,C  22)           73.1162         0.109450   
    216. A(C  14,C   4,C  16)           19.6361         0.093362   
    217. A(H   5,C   4,C  20)          117.0824         0.107716   
    218. A(C   2,C   4,C  20)           62.9176         0.113281   
    219. A(H   5,C   4,C  22)          125.5113         0.104763   
    220. A(C  16,C   4,C  22)           35.5113         0.091540   
    221. A(C  20,C   4,C  22)           16.8838         0.090438   
    222. A(C  18,C   4,C  20)           17.4095         0.091469   
    223. A(C   8,C   6,C  20)           73.1162         0.109450   
    224. A(C  16,C   6,C  18)           17.4095         0.091469   
    225. A(C  14,C   6,C  18)           31.7155         0.092016   
    226. A(C  12,C   6,C  18)           36.7553         0.091469   
    227. A(C   8,C   6,C  18)           90.0000         0.113281   
    228. A(C   4,C   6,C  18)           62.9176         0.113281   
    229. A(C  12,C   6,C  16)           33.8386         0.092571   
    230. A(C   8,C   6,C  16)           99.6729         0.124119   
    231. A(H   7,C   6,C  16)           99.6729         0.116070   
    232. A(C   4,C   6,C  16)           70.3639         0.124119   
    233. A(C  12,C   6,C  14)           19.6361         0.093362   
    234. A(C   8,C   6,C  14)           90.0000         0.131904   
    235. A(H   7,C   6,C  14)           90.0000         0.122071   
    236. A(C   4,C   6,C  14)           90.0000         0.131904   
    237. A(H   7,C   6,C  12)           99.6729         0.116070   
    238. A(C   4,C   6,C  20)           73.1162         0.109450   
    239. A(C   8,C   6,C  12)           70.3639         0.124119   
    240. A(C   4,C   6,C  22)           90.0000         0.113281   
    241. A(C  14,C   6,C  22)           31.7155         0.092016   
    242. A(C  20,C   6,C  22)           16.8838         0.090438   
    243. A(C  18,C   6,C  22)           30.4786         0.090707   
    244. A(C   4,C   6,C  12)           99.6729         0.124119   
    245. A(C  14,C   6,C  16)           19.6361         0.093362   
    246. A(H   7,C   6,C   8)          120.0000         0.355245   
    247. A(C   4,C   6,C   8)          120.0000         0.434409   
    248. A(H   7,C   6,C  18)          117.0824         0.107716   
    249. A(H   7,C   6,C  20)          125.5113         0.104763   
    250. A(C   8,C   6,C  22)           62.9176         0.113281   
    251. A(C  16,C   6,C  22)           36.7553         0.091469   
    252. A(C  12,C   6,C  22)           17.4095         0.091469   
    253. A(C   4,C   6,H   7)          120.0000         0.355245   
    254. A(H   7,C   6,C  22)          117.0824         0.107716   
    255. A(C  18,C   6,C  20)           16.8838         0.090438   
    256. A(C  16,C   6,C  20)           30.2015         0.091079   
    257. A(C  14,C   6,C  20)           35.5113         0.091540   
    258. A(C  12,C   6,C  20)           30.2015         0.091079   
    259. A(H   9,C   8,C  10)          120.0000         0.355245   
    260. A(C  16,C   8,C  20)           30.4786         0.090707   
    261. A(C  10,C   8,C  22)           70.3639         0.124119   
    262. A(C   6,C   8,C  10)          120.0000         0.434409   
    263. A(C   6,C   8,C  22)           99.6729         0.124119   
    264. A(C   6,C   8,C  16)           62.9176         0.113281   
    265. A(H   9,C   8,C  16)          117.0824         0.107716   
    266. A(C   6,C   8,H   9)          120.0000         0.355245   
    267. A(C  12,C   8,C  14)           19.6361         0.093362   
    268. A(H   9,C   8,C  18)          125.5113         0.104763   
    269. A(C  20,C   8,C  22)           17.4095         0.091469   
    270. A(C   6,C   8,C  20)           90.0000         0.113281   
    271. A(C  14,C   8,C  22)           33.8386         0.092571   
    272. A(C  12,C   8,C  22)           19.6361         0.093362   
    273. A(H   9,C   8,C  22)           99.6729         0.116070   
    274. A(C  18,C   8,C  20)           16.8838         0.090438   
    275. A(H   9,C   8,C  12)           90.0000         0.122071   
    276. A(C  14,C   8,C  20)           36.7553         0.091469   
    277. A(C  12,C   8,C  20)           31.7155         0.092016   
    278. A(H   9,C   8,C  20)          117.0824         0.107716   
    279. A(C  16,C   8,C  18)           16.8838         0.090438   
    280. A(C  12,C   8,C  18)           35.5113         0.091540   
    281. A(C  10,C   8,C  18)           73.1162         0.109450   
    282. A(C   6,C   8,C  18)           73.1162         0.109450   
    283. A(C  14,C   8,C  16)           17.4095         0.091469   
    284. A(C  12,C   8,C  16)           31.7155         0.092016   
    285. A(C  14,C   8,C  18)           30.2015         0.091079   
    286. A(C  10,C   8,C  16)           90.0000         0.113281   
    287. A(C  16,C   8,C  22)           36.7553         0.091469   
    288. A(C  18,C   8,C  22)           30.2015         0.091079   
    289. A(C  10,C   8,C  20)           62.9176         0.113281   
    290. A(C  10,C   8,C  14)           99.6729         0.124119   
    291. A(H   9,C   8,C  14)           99.6729         0.116070   
    292. A(C   6,C   8,C  14)           70.3639         0.124119   
    293. A(C  10,C   8,C  12)           90.0000         0.131904   
    294. A(C   6,C   8,C  12)           90.0000         0.131904   
    295. A(H  11,C  10,C  14)          117.0824         0.107716   
    296. A(C   0,C  10,C  14)           90.0000         0.113281   
    297. A(C  14,C  10,C  18)           30.4786         0.090707   
    298. A(C   8,C  10,C  20)           99.6729         0.124119   
    299. A(C   8,C  10,C  22)           90.0000         0.131904   
    300. A(C   0,C  10,C  22)           90.0000         0.131904   
    301. A(C  18,C  10,C  20)           17.4095         0.091469   
    302. A(C  16,C  10,C  18)           16.8838         0.090438   
    303. A(C  12,C  10,C  14)           17.4095         0.091469   
    304. A(C   0,C  10,C  16)           73.1162         0.109450   
    305. A(H  11,C  10,C  20)           99.6729         0.116070   
    306. A(C   0,C  10,C  20)           70.3639         0.124119   
    307. A(C  12,C  10,C  18)           36.7553         0.091469   
    308. A(H  11,C  10,C  18)          117.0824         0.107716   
    309. A(C   0,C  10,C  18)           62.9176         0.113281   
    310. A(C  12,C  10,C  16)           30.2015         0.091079   
    311. A(C   8,C  10,C  14)           62.9176         0.113281   
    312. A(H  11,C  10,C  12)           99.6729         0.116070   
    313. A(C   8,C  10,C  12)           70.3639         0.124119   
    314. A(C   0,C  10,C  12)           99.6729         0.124119   
    315. A(C  16,C  10,C  20)           30.2015         0.091079   
    316. A(H  11,C  10,C  22)           90.0000         0.122071   
    317. A(C   8,C  10,C  16)           73.1162         0.109450   
    318. A(H  11,C  10,C  16)          125.5113         0.104763   
    319. A(C  12,C  10,C  20)           33.8386         0.092571   
    320. A(C  14,C  10,C  20)           36.7553         0.091469   
    321. A(C   8,C  10,C  18)           90.0000         0.113281   
    322. A(C  14,C  10,C  16)           16.8838         0.090438   
    323. A(C   8,C  10,H  11)          120.0000         0.355245   
    324. A(C  14,C  10,C  22)           31.7155         0.092016   
    325. A(C  12,C  10,C  22)           19.6361         0.093362   
    326. A(C   0,C  10,H  11)          120.0000         0.355245   
    327. A(C  16,C  10,C  22)           35.5113         0.091540   
    328. A(C   0,C  10,C   8)          120.0000         0.434409   
    329. A(C  20,C  10,C  22)           19.6361         0.093362   
    330. A(C  18,C  10,C  22)           31.7155         0.092016   
    331. A(C  14,C  12,C  22)          120.0000         0.434409   
    332. A(H  13,C  12,C  22)          120.0000         0.355245   
    333. A(C   0,C  12,C   4)           30.4786         0.090707   
    334. A(C   4,C  12,C   6)           17.4095         0.091469   
    335. A(C   2,C  12,C   6)           30.2015         0.091079   
    336. A(C   0,C  12,C   6)           36.7553         0.091469   
    337. A(C   2,C  12,C  22)           73.1162         0.109450   
    338. A(C   0,C  12,C   2)           16.8838         0.090438   
    339. A(C   2,C  12,C  14)           73.1162         0.109450   
    340. A(C   2,C  12,H  13)          125.5113         0.104763   
    341. A(C   8,C  12,C  10)           19.6361         0.093362   
    342. A(C   6,C  12,C  10)           33.8386         0.092571   
    343. A(C   4,C  12,C  10)           36.7553         0.091469   
    344. A(C   0,C  12,C  10)           17.4095         0.091469   
    345. A(C  10,C  12,C  14)           99.6729         0.124119   
    346. A(C  10,C  12,H  13)           99.6729         0.116070   
    347. A(C   0,C  12,C  22)           62.9176         0.113281   
    348. A(C   0,C  12,C  14)           90.0000         0.113281   
    349. A(C   0,C  12,H  13)          117.0824         0.107716   
    350. A(C   2,C  12,C  10)           30.2015         0.091079   
    351. A(H  13,C  12,C  14)          120.0000         0.355245   
    352. A(C  10,C  12,C  22)           70.3639         0.124119   
    353. A(C   2,C  12,C   4)           16.8838         0.090438   
    354. A(C   6,C  12,H  13)           99.6729         0.116070   
    355. A(C   4,C  12,C  22)           90.0000         0.113281   
    356. A(C   4,C  12,C  14)           62.9176         0.113281   
    357. A(C   4,C  12,H  13)          117.0824         0.107716   
    358. A(C   4,C  12,C   8)           31.7155         0.092016   
    359. A(C   6,C  12,C   8)           19.6361         0.093362   
    360. A(C   2,C  12,C   8)           35.5113         0.091540   
    361. A(C   6,C  12,C  14)           70.3639         0.124119   
    362. A(C   0,C  12,C   8)           31.7155         0.092016   
    363. A(C   8,C  12,C  22)           90.0000         0.131904   
    364. A(C   8,C  12,C  14)           90.0000         0.131904   
    365. A(C   8,C  12,H  13)           90.0000         0.122071   
    366. A(C   6,C  12,C  22)           99.6729         0.124119   
    367. A(C   4,C  14,C   6)           19.6361         0.093362   
    368. A(C   2,C  14,C   6)           31.7155         0.092016   
    369. A(C   0,C  14,C   6)           35.5113         0.091540   
    370. A(C   6,C  14,C  16)           90.0000         0.131904   
    371. A(C   6,C  14,H  15)           90.0000         0.122071   
    372. A(C   6,C  14,C  12)           90.0000         0.131904   
    373. A(C   0,C  14,C   2)           16.8838         0.090438   
    374. A(C   2,C  14,C  16)           62.9176         0.113281   
    375. A(C   4,C  14,C  10)           36.7553         0.091469   
    376. A(C   2,C  14,C  12)           90.0000         0.113281   
    377. A(C   0,C  14,C  16)           73.1162         0.109450   
    378. A(C   0,C  14,H  15)          125.5113         0.104763   
    379. A(C   0,C  14,C  12)           73.1162         0.109450   
    380. A(C   8,C  14,C  10)           17.4095         0.091469   
    381. A(C   6,C  14,C  10)           31.7155         0.092016   
    382. A(C   2,C  14,C  10)           30.4786         0.090707   
    383. A(C   0,C  14,C  10)           16.8838         0.090438   
    384. A(C  10,C  14,C  16)           90.0000         0.113281   
    385. A(C  10,C  14,H  15)          117.0824         0.107716   
    386. A(C  10,C  14,C  12)           62.9176         0.113281   
    387. A(H  15,C  14,C  16)          120.0000         0.355245   
    388. A(C  12,C  14,C  16)          120.0000         0.434409   
    389. A(C  12,C  14,H  15)          120.0000         0.355245   
    390. A(C   2,C  14,C   4)           17.4095         0.091469   
    391. A(C   0,C  14,C   4)           30.2015         0.091079   
    392. A(C   4,C  14,C  16)           70.3639         0.124119   
    393. A(C   4,C  14,H  15)           99.6729         0.116070   
    394. A(C   4,C  14,C  12)           99.6729         0.124119   
    395. A(C   6,C  14,C   8)           19.6361         0.093362   
    396. A(C   4,C  14,C   8)           33.8386         0.092571   
    397. A(C   2,C  14,C   8)           36.7553         0.091469   
    398. A(C   0,C  14,C   8)           30.2015         0.091079   
    399. A(C   8,C  14,C  16)           99.6729         0.124119   
    400. A(C   8,C  14,H  15)           99.6729         0.116070   
    401. A(C   8,C  14,C  12)           70.3639         0.124119   
    402. A(C   2,C  14,H  15)          117.0824         0.107716   
    403. A(C   4,C  16,C   6)           19.6361         0.093362   
    404. A(C   2,C  16,C   6)           33.8386         0.092571   
    405. A(C   0,C  16,C   6)           36.7553         0.091469   
    406. A(C   6,C  16,C  18)           99.6729         0.124119   
    407. A(C   6,C  16,H  17)           99.6729         0.116070   
    408. A(C   6,C  16,C  14)           70.3639         0.124119   
    409. A(C   0,C  16,C  18)           62.9176         0.113281   
    410. A(C   0,C  16,C   2)           17.4095         0.091469   
    411. A(C   2,C  16,C  18)           70.3639         0.124119   
    412. A(C   0,C  16,H  17)          117.0824         0.107716   
    413. A(C   2,C  16,H  17)           99.6729         0.116070   
    414. A(C   0,C  16,C  14)           90.0000         0.113281   
    415. A(H  17,C  16,C  18)          120.0000         0.355245   
    416. A(C   8,C  16,C  10)           16.8838         0.090438   
    417. A(C   6,C  16,C  10)           30.2015         0.091079   
    418. A(C   2,C  16,C  10)           30.2015         0.091079   
    419. A(C  10,C  16,C  18)           73.1162         0.109450   
    420. A(C   0,C  16,C  10)           16.8838         0.090438   
    421. A(C  10,C  16,H  17)          125.5113         0.104763   
    422. A(C  10,C  16,C  14)           73.1162         0.109450   
    423. A(C  14,C  16,H  17)          120.0000         0.355245   
    424. A(C   2,C  16,C   4)           19.6361         0.093362   
    425. A(C   0,C  16,C   4)           31.7155         0.092016   
    426. A(C   4,C  16,C  10)           35.5113         0.091540   
    427. A(C   4,C  16,C  18)           90.0000         0.131904   
    428. A(C   4,C  16,H  17)           90.0000         0.122071   
    429. A(C   4,C  16,C  14)           90.0000         0.131904   
    430. A(C   6,C  16,C   8)           17.4095         0.091469   
    431. A(C   4,C  16,C   8)           31.7155         0.092016   
    432. A(C   2,C  16,C   8)           36.7553         0.091469   
    433. A(C   0,C  16,C   8)           30.4786         0.090707   
    434. A(C   8,C  16,C  18)           90.0000         0.113281   
    435. A(C   8,C  16,H  17)          117.0824         0.107716   
    436. A(C   8,C  16,C  14)           62.9176         0.113281   
    437. A(C   2,C  16,C  14)           99.6729         0.124119   
    438. A(C  14,C  16,C  18)          120.0000         0.434409   
    439. A(C   0,C  18,C  20)           70.3639         0.124119   
    440. A(C   0,C  18,H  19)           99.6729         0.116070   
    441. A(C   4,C  18,C   6)           17.4095         0.091469   
    442. A(C   2,C  18,C   6)           31.7155         0.092016   
    443. A(C   0,C  18,C   6)           36.7553         0.091469   
    444. A(C   0,C  18,C  16)           99.6729         0.124119   
    445. A(C   6,C  18,C  20)           90.0000         0.113281   
    446. A(C   6,C  18,H  19)          117.0824         0.107716   
    447. A(C   6,C  18,C  16)           62.9176         0.113281   
    448. A(C   0,C  18,C   2)           19.6361         0.093362   
    449. A(C   2,C  18,C  20)           90.0000         0.131904   
    450. A(C   2,C  18,H  19)           90.0000         0.122071   
    451. A(C   2,C  18,C  16)           90.0000         0.131904   
    452. A(H  19,C  18,C  20)          120.0000         0.355245   
    453. A(C  16,C  18,C  20)          120.0000         0.434409   
    454. A(C  16,C  18,H  19)          120.0000         0.355245   
    455. A(C   8,C  18,C  10)           16.8838         0.090438   
    456. A(C   6,C  18,C  10)           30.4786         0.090707   
    457. A(C   4,C  18,C  10)           36.7553         0.091469   
    458. A(C   0,C  18,C  10)           17.4095         0.091469   
    459. A(C  10,C  18,C  20)           62.9176         0.113281   
    460. A(C  10,C  18,H  19)          117.0824         0.107716   
    461. A(C  10,C  18,C  16)           90.0000         0.113281   
    462. A(C   2,C  18,C   4)           19.6361         0.093362   
    463. A(C   0,C  18,C   4)           33.8386         0.092571   
    464. A(C   4,C  18,C  20)           99.6729         0.124119   
    465. A(C   4,C  18,H  19)           99.6729         0.116070   
    466. A(C   4,C  18,C  16)           70.3639         0.124119   
    467. A(C   6,C  18,C   8)           16.8838         0.090438   
    468. A(C   4,C  18,C   8)           30.2015         0.091079   
    469. A(C   2,C  18,C   8)           35.5113         0.091540   
    470. A(C   0,C  18,C   8)           30.2015         0.091079   
    471. A(C   8,C  18,C  20)           73.1162         0.109450   
    472. A(C   8,C  18,H  19)          125.5113         0.104763   
    473. A(C   8,C  18,C  16)           73.1162         0.109450   
    474. A(C   2,C  18,C  10)           31.7155         0.092016   
    475. A(C   6,C  20,C  22)           73.1162         0.109450   
    476. A(C   6,C  20,H  21)          125.5113         0.104763   
    477. A(C   2,C  20,C  22)           99.6729         0.124119   
    478. A(C   6,C  20,C  18)           73.1162         0.109450   
    479. A(C   2,C  20,H  21)           99.6729         0.116070   
    480. A(C   2,C  20,C  18)           70.3639         0.124119   
    481. A(C  18,C  20,H  21)          120.0000         0.355245   
    482. A(C   8,C  20,C  10)           17.4095         0.091469   
    483. A(C   4,C  20,C  10)           36.7553         0.091469   
    484. A(C   2,C  20,C  10)           33.8386         0.092571   
    485. A(C   0,C  20,C  10)           19.6361         0.093362   
    486. A(C  10,C  20,C  22)           70.3639         0.124119   
    487. A(C  10,C  20,H  21)           99.6729         0.116070   
    488. A(C  10,C  20,C  18)           99.6729         0.124119   
    489. A(C   2,C  20,C   4)           17.4095         0.091469   
    490. A(C   0,C  20,C   4)           31.7155         0.092016   
    491. A(C   4,C  20,C  22)           90.0000         0.113281   
    492. A(C   4,C  20,H  21)          117.0824         0.107716   
    493. A(C   4,C  20,C  18)           62.9176         0.113281   
    494. A(C   6,C  20,C   8)           16.8838         0.090438   
    495. A(C   4,C  20,C   8)           30.4786         0.090707   
    496. A(C   2,C  20,C   8)           36.7553         0.091469   
    497. A(C   0,C  20,C   8)           31.7155         0.092016   
    498. A(C   8,C  20,C  22)           62.9176         0.113281   
    499. A(C   8,C  20,H  21)          117.0824         0.107716   
    500. A(C   8,C  20,C  18)           90.0000         0.113281   
    501. A(C   6,C  20,C  10)           30.2015         0.091079   
    502. A(C   0,C  20,C  22)           90.0000         0.131904   
    503. A(C   0,C  20,H  21)           90.0000         0.122071   
    504. A(C   0,C  20,C  18)           90.0000         0.131904   
    505. A(H  21,C  20,C  22)          120.0000         0.355245   
    506. A(C   4,C  20,C   6)           16.8838         0.090438   
    507. A(C   2,C  20,C   6)           30.2015         0.091079   
    508. A(C   0,C  20,C   6)           35.5113         0.091540   
    509. A(C   0,C  20,C   2)           19.6361         0.093362   
    510. A(C  18,C  20,C  22)          120.0000         0.434409   
    511. A(C   6,C  22,C  10)           31.7155         0.092016   
    512. A(C   4,C  22,C  10)           35.5113         0.091540   
    513. A(C   2,C  22,C  10)           31.7155         0.092016   
    514. A(C   0,C  22,C  10)           19.6361         0.093362   
    515. A(C  10,C  22,H  23)           90.0000         0.122071   
    516. A(C  10,C  22,C  20)           90.0000         0.131904   
    517. A(C  10,C  22,C  12)           90.0000         0.131904   
    518. A(C   2,C  22,C   4)           16.8838         0.090438   
    519. A(C   0,C  22,C   4)           30.2015         0.091079   
    520. A(C   4,C  22,H  23)          125.5113         0.104763   
    521. A(C   4,C  22,C  20)           73.1162         0.109450   
    522. A(C   4,C  22,C  12)           73.1162         0.109450   
    523. A(C   6,C  22,C   8)           17.4095         0.091469   
    524. A(C   4,C  22,C   8)           30.2015         0.091079   
    525. A(C   2,C  22,C   8)           36.7553         0.091469   
    526. A(C   0,C  22,C   8)           33.8386         0.092571   
    527. A(C   8,C  22,H  23)           99.6729         0.116070   
    528. A(C   8,C  22,C  20)           99.6729         0.124119   
    529. A(C   8,C  22,C  12)           70.3639         0.124119   
    530. A(C   0,C  22,H  23)           99.6729         0.116070   
    531. A(C   0,C  22,C  20)           70.3639         0.124119   
    532. A(C   0,C  22,C  12)           99.6729         0.124119   
    533. A(C  20,C  22,H  23)          120.0000         0.355245   
    534. A(C  12,C  22,H  23)          120.0000         0.355245   
    535. A(C   0,C  22,C   2)           17.4095         0.091469   
    536. A(C   2,C  22,H  23)          117.0824         0.107716   
    537. A(C   2,C  22,C  20)           62.9176         0.113281   
    538. A(C   2,C  22,C  12)           90.0000         0.113281   
    539. A(C  12,C  22,C  20)          120.0000         0.434409   
    540. A(C   8,C  22,C  10)           19.6361         0.093362   
    541. A(C   4,C  22,C   6)           16.8838         0.090438   
    542. A(C   2,C  22,C   6)           30.4786         0.090707   
    543. A(C   0,C  22,C   6)           36.7553         0.091469   
    544. A(C   6,C  22,H  23)          117.0824         0.107716   
    545. A(C   6,C  22,C  20)           90.0000         0.113281   
    546. A(C   6,C  22,C  12)           62.9176         0.113281   
    547. D(H   3,C   2,C   0,H   1)      0.0000         0.057088   
    548. D(C   4,C   2,C   0,H   1)    180.0000         0.057088   
    549. D(H   3,C   2,C   0,C  10)    180.0000         0.057088   
    550. D(C   6,C   4,C   2,C   0)      0.0000         0.057088   
    551. D(H   5,C   4,C   2,C   0)    180.0000         0.057088   
    552. D(H   5,C   4,C   2,H   3)      0.0000         0.057088   
    553. D(H   7,C   6,C   4,C   2)    180.0000         0.057088   
    554. D(H   7,C   6,C   4,H   5)      0.0000         0.057088   
    555. D(C   8,C   6,C   4,C   2)      0.0000         0.057088   
    556. D(H   9,C   8,C   6,C   4)    180.0000         0.057088   
    557. D(H   9,C   8,C   6,H   7)      0.0000         0.057088   
    558. D(C  10,C   8,C   6,C   4)      0.0000         0.057088   
    559. D(C   8,C  10,C   0,H   1)    180.0000         0.057088   
    560. D(H  11,C  10,C   0,H   1)      0.0000         0.057088   
    561. D(C   0,C  10,C   8,H   9)    180.0000         0.057088   
    562. D(H  11,C  10,C   8,C   6)    180.0000         0.057088   
    563. D(C   0,C  10,C   8,C   6)      0.0000         0.057088   
    564. D(C   8,C  10,C   0,C   2)      0.0000         0.057088   
    565. D(C  14,C  12,C   6,C   4)    -61.4638         0.001500   
    566. D(H  13,C  12,C   6,H   7)    -57.0725         0.001500   
    567. D(H  13,C  12,C   2,C   0)     64.8282         0.001500   
    568. D(H  13,C  12,C   2,H   3)    180.0000         0.001500   
    569. D(C  14,C  12,C   2,C   0)    180.0000         0.001500   
    570. D(H  13,C  12,C   4,H   5)   -111.6704         0.001500   
    571. D(H  13,C  12,C   4,C   2)    124.1648         0.001500   
    572. D(C  14,C  12,C   4,C   2)   -124.1648         0.001500   
    573. D(H  13,C  12,C   6,C   4)   -180.0000         0.001500   
    574. D(C  14,C  12,C   0,H   1)   -124.1648         0.001500   
    575. D(H  13,C  12,C   0,C   2)   -124.1648         0.001500   
    576. D(H  13,C  12,C   8,C   6)   -120.0000         0.001500   
    577. D(C  14,C  12,C   8,C   6)      0.0000         0.001500   
    578. D(C  14,C  12,C  10,C   0)    -57.0725         0.001500   
    579. D(H  13,C  12,C  10,C   8)    -61.4638         0.001500   
    580. D(H  13,C  12,C  10,C   0)   -180.0000         0.001500   
    581. D(H  13,C  12,C   0,H   1)    111.6704         0.001500   
    582. D(H  13,C  12,C   8,H   9)      0.0000         0.001500   
    583. D(C  12,C  14,C  10,C   8)   -111.6704         0.001500   
    584. D(H  15,C  14,C  12,C  22)    180.0000         0.057088   
    585. D(H  15,C  14,C  10,C   0)   -124.1648         0.001500   
    586. D(C  16,C  14,C  12,H  13)    180.0000         0.057088   
    587. D(C  12,C  14,C  10,C   0)    124.1648         0.001500   
    588. D(H  15,C  14,C   8,C   6)    -61.4638         0.001500   
    589. D(C  12,C  14,C   8,H   9)    -61.4638         0.001500   
    590. D(C  12,C  14,C   8,C   6)    180.0000         0.001500   
    591. D(H  15,C  14,C   6,C   4)   -120.0000         0.001500   
    592. D(C  12,C  14,C   6,C   4)    120.0000         0.001500   
    593. D(C  12,C  14,C   4,H   5)   -180.0000         0.001500   
    594. D(H  15,C  14,C   4,C   2)    180.0000         0.001500   
    595. D(C  12,C  14,C   4,C   2)     57.0725         0.001500   
    596. D(H  15,C  14,C   2,C   0)    124.1648         0.001500   
    597. D(C  12,C  14,C   6,H   7)   -120.0000         0.001500   
    598. D(C  12,C  14,C   2,H   3)    124.1648         0.001500   
    599. D(C  12,C  14,C   2,C   0)      0.0000         0.001500   
    600. D(H  15,C  14,C  12,H  13)      0.0000         0.057088   
    601. D(C  12,C  14,C   0,C   2)    180.0000         0.001500   
    602. D(C  12,C  14,C   0,H   1)     64.8282         0.001500   
    603. D(H  15,C  14,C   0,H   1)    180.0000         0.001500   
    604. D(C  14,C  16,C   2,H   3)    180.0000         0.001500   
    605. D(C  14,C  16,C   2,C   0)     57.0725         0.001500   
    606. D(H  17,C  16,C   0,H   1)   -111.6704         0.001500   
    607. D(C  14,C  16,C   0,C   2)   -124.1648         0.001500   
    608. D(H  17,C  16,C   2,C   0)    180.0000         0.001500   
    609. D(C  14,C  16,C   0,H   1)    124.1648         0.001500   
    610. D(C  18,C  16,C  14,C  12)      0.0000         0.057088   
    611. D(H  17,C  16,C  14,H  15)      0.0000         0.057088   
    612. D(H  17,C  16,C  14,C  12)    180.0000         0.057088   
    613. D(C  14,C  16,C  10,C   8)    -50.3437         0.001500   
    614. D(C  14,C  16,C  10,C   0)    180.0000         0.001500   
    615. D(H  17,C  16,C   8,C   6)     -0.0000         0.001500   
    616. D(C  14,C  16,C   6,C   4)    180.0000         0.001500   
    617. D(H  17,C  16,C   6,C   4)    -61.4638         0.001500   
    618. D(C  14,C  16,C   6,H   7)    -61.4638         0.001500   
    619. D(C  14,C  16,C   8,H   9)     -0.0000         0.001500   
    620. D(H  17,C  16,C  10,C   0)    -64.8282         0.001500   
    621. D(H  17,C  16,C   4,C   2)   -120.0000         0.001500   
    622. D(C  14,C  16,C   4,H   5)   -120.0000         0.001500   
    623. D(C  14,C  16,C   4,C   2)    120.0000         0.001500   
    624. D(C  14,C  16,C   8,C   6)   -111.6704         0.001500   
    625. D(C  20,C  18,C  16,C  14)      0.0000         0.057088   
    626. D(H  19,C  18,C  16,H  17)      0.0000         0.057088   
    627. D(H  19,C  18,C  16,C  14)    180.0000         0.057088   
    628. D(H  19,C  18,C  10,C   0)      0.0000         0.001500   
    629. D(C  16,C  18,C  10,C   0)   -124.1648         0.001500   
    630. D(H  19,C  18,C   8,C   6)     64.8282         0.001500   
    631. D(C  16,C  18,C   8,H   9)     64.8282         0.001500   
    632. D(C  16,C  18,C   8,C   6)    -50.3437         0.001500   
    633. D(H  19,C  18,C   6,C   4)      0.0000         0.001500   
    634. D(C  16,C  18,C   6,H   7)      0.0000         0.001500   
    635. D(C  16,C  18,C   6,C   4)   -111.6704         0.001500   
    636. D(H  19,C  18,C   4,C   2)    -61.4638         0.001500   
    637. D(C  16,C  18,C   4,H   5)    -61.4638         0.001500   
    638. D(C  16,C  18,C   4,C   2)    180.0000         0.001500   
    639. D(H  19,C  18,C   2,C   0)   -120.0000         0.001500   
    640. D(C  16,C  18,C  10,C   8)      0.0000         0.001500   
    641. D(C  16,C  18,C   2,H   3)   -120.0000         0.001500   
    642. D(C  16,C  18,C   2,C   0)    120.0000         0.001500   
    643. D(H  19,C  18,C   0,H   1)    -57.0725         0.001500   
    644. D(C  16,C  18,C   0,C   2)    -61.4638         0.001500   
    645. D(C  16,C  18,C   0,H   1)    180.0000         0.001500   
    646. D(C  22,C  20,C  18,C  16)      0.0000         0.057088   
    647. D(H  21,C  20,C  18,C  16)    180.0000         0.057088   
    648. D(H  21,C  20,C  10,C   0)     61.4638         0.001500   
    649. D(C  18,C  20,C  10,C   8)     57.0725         0.001500   
    650. D(C  18,C  20,C  10,C   0)    -61.4638         0.001500   
    651. D(H  21,C  20,C   8,C   6)    124.1648         0.001500   
    652. D(C  18,C  20,C   8,H   9)    124.1648         0.001500   
    653. D(C  18,C  20,C   8,C   6)      0.0000         0.001500   
    654. D(H  21,C  20,C   6,C   4)     64.8282         0.001500   
    655. D(C  18,C  20,C   6,H   7)     64.8282         0.001500   
    656. D(C  18,C  20,C   6,C   4)    -50.3437         0.001500   
    657. D(H  21,C  20,C   4,C   2)      0.0000         0.001500   
    658. D(C  18,C  20,C   4,H   5)      0.0000         0.001500   
    659. D(C  18,C  20,C   4,C   2)   -111.6704         0.001500   
    660. D(H  21,C  20,C   2,C   0)    -61.4638         0.001500   
    661. D(C  18,C  20,C   2,H   3)    -61.4638         0.001500   
    662. D(C  18,C  20,C   2,C   0)    180.0000         0.001500   
    663. D(H  21,C  20,C   0,H   1)      0.0000         0.001500   
    664. D(H  21,C  20,C  18,H  19)      0.0000         0.057088   
    665. D(C  18,C  20,C   0,C   2)      0.0000         0.001500   
    666. D(C  18,C  20,C   0,H   1)   -120.0000         0.001500   
    667. D(C  20,C  22,C   2,C   0)   -111.6704         0.001500   
    668. D(C  12,C  22,C   2,H   3)   -124.1648         0.001500   
    669. D(C  12,C  22,C   2,C   0)    124.1648         0.001500   
    670. D(C  20,C  22,C   0,H   1)    -61.4638         0.001500   
    671. D(C  12,C  22,C   0,C   2)    -57.0725         0.001500   
    672. D(C  12,C  22,C   4,C   2)    180.0000         0.001500   
    673. D(C  12,C  22,C   0,H   1)    180.0000         0.001500   
    674. D(H  23,C  22,C  20,C  18)    180.0000         0.057088   
    675. D(C  12,C  22,C  20,C  18)      0.0000         0.057088   
    676. D(H  23,C  22,C  12,H  13)      0.0000         0.057088   
    677. D(C  20,C  22,C  12,C  14)      0.0000         0.057088   
    678. D(C  20,C  22,C  10,C   0)      0.0000         0.001500   
    679. D(C  12,C  22,C  10,C   8)      0.0000         0.001500   
    680. D(C  12,C  22,C  10,C   0)   -120.0000         0.001500   
    681. D(C  20,C  22,C   8,C   6)     57.0725         0.001500   
    682. D(C  12,C  22,C   8,H   9)     61.4638         0.001500   
    683. D(C  12,C  22,C   8,C   6)    -61.4638         0.001500   
    684. D(C  20,C  22,C  12,H  13)    180.0000         0.057088   
    685. D(C  20,C  22,C   6,C   4)      0.0000         0.001500   
    686. D(C  12,C  22,C   6,H   7)      0.0000         0.001500   
    687. D(C  12,C  22,C   6,C   4)   -124.1648         0.001500   
    688. D(C  12,C  22,C  20,H  21)    180.0000         0.057088   
    689. D(C  20,C  22,C   4,C   2)    -50.3437         0.001500   
    690. D(C  12,C  22,C   4,H   5)    -64.8282         0.001500   
    -----------------------------------------------------------------

Number of atoms                         .... 24
Number of degrees of freedom            .... 690

         *************************************************************
         *                GEOMETRY OPTIMIZATION CYCLE   1            *
         *************************************************************
---------------------------------
CARTESIAN COORDINATES (ANGSTROEM)
---------------------------------
  C      0.000000    1.950000    1.391500
  H      0.000000    1.950000    2.471500
  C      1.205074    1.950000    0.695750
  H      2.140382    1.950000    1.235750
  C      1.205074    1.950000   -0.695750
  H      2.140382    1.950000   -1.235750
  C     -0.000000    1.950000   -1.391500
  H     -0.000000    1.950000   -2.471500
  C     -1.205074    1.950000   -0.695750
  H     -2.140382    1.950000   -1.235750
  C     -1.205074    1.950000    0.695750
  H     -2.140382    1.950000    1.235750
  C     -1.205074   -1.950000   -0.695750
  H     -2.140382   -1.950000   -1.235750
  C     -0.000000   -1.950000   -1.391500
  H     -0.000000   -1.950000   -2.471500
  C      1.205074   -1.950000   -0.695750
  H      2.140382   -1.950000   -1.235750
  C      1.205074   -1.950000    0.695750
  H      2.140382   -1.950000    1.235750
  C     -0.000000   -1.950000    1.391500
  H     -0.000000   -1.950000    2.471500
  C     -1.205074   -1.950000    0.695750
  H     -2.140382   -1.950000    1.235750

----------------------------
CARTESIAN COORDINATES (A.U.)
----------------------------
  NO LB      ZA    FRAG     MASS         X           Y           Z
   0 C     6.0000    0    12.011    0.000000    3.684966    2.629554
   1 H     1.0000    0     1.008    0.000000    3.684966    4.670458
   2 C     6.0000    0    12.011    2.277260    3.684966    1.314777
   3 H     1.0000    0     1.008    4.044735    3.684966    2.335229
   4 C     6.0000    0    12.011    2.277260    3.684966   -1.314777
   5 H     1.0000    0     1.008    4.044735    3.684966   -2.335229
   6 C     6.0000    0    12.011   -0.000000    3.684966   -2.629554
   7 H     1.0000    0     1.008   -0.000000    3.684966   -4.670458
   8 C     6.0000    0    12.011   -2.277260    3.684966   -1.314777
   9 H     1.0000    0     1.008   -4.044735    3.684966   -2.335229
  10 C     6.0000    0    12.011   -2.277260    3.684966    1.314777
  11 H     1.0000    0     1.008   -4.044735    3.684966    2.335229
  12 C     6.0000    0    12.011   -2.277260   -3.684966   -1.314777
  13 H     1.0000    0     1.008   -4.044735   -3.684966   -2.335229
  14 C     6.0000    0    12.011   -0.000000   -3.684966   -2.629554
  15 H     1.0000    0     1.008   -0.000000   -3.684966   -4.670458
  16 C     6.0000    0    12.011    2.277260   -3.684966   -1.314777
  17 H     1.0000    0     1.008    4.044735   -3.684966   -2.335229
  18 C     6.0000    0    12.011    2.277260   -3.684966    1.314777
  19 H     1.0000    0     1.008    4.044735   -3.684966    2.335229
  20 C     6.0000    0    12.011   -0.000000   -3.684966    2.629554
  21 H     1.0000    0     1.008   -0.000000   -3.684966    4.670458
  22 C     6.0000    0    12.011   -2.277260   -3.684966    1.314777
  23 H     1.0000    0     1.008   -4.044735   -3.684966    2.335229

--------------------------------
INTERNAL COORDINATES (ANGSTROEM)
--------------------------------
 C      0   0   0     0.000000000000     0.00000000     0.00000000
 H      1   0   0     1.080000000000     0.00000000     0.00000000
 C      1   2   0     1.391500000000   120.00000000     0.00000000
 H      3   1   2     1.080000000000   120.00000000     0.00000000
 C      3   1   2     1.391500000000   120.00000000   180.00000000
 H      5   3   1     1.080000000000   120.00000000   180.00000000
 C      5   3   1     1.391500000000   120.00000000     0.00000000
 H      7   5   3     1.080000000000   120.00000000   180.00000000
 C      7   5   3     1.391500000000   120.00000000     0.00000000
 H      9   7   5     1.080000000000   120.00000000   180.00000085
 C      1   2   3     1.391500000000   120.00000000   180.00000000
 H     11   1   2     1.080000000000   120.00000000     0.00000000
 C      9   7   5     3.900000000000    90.00000000   270.00000000
 H     13   9   7     1.080000000000    90.00000000   240.00000000
 C     13   9   7     1.391500000000    90.00000000     0.00000000
 H     15  13   9     1.080000000000   120.00000000   270.00000000
 C     15  13   9     1.391500000000   120.00000000    90.00000000
 H     17  15  13     1.080000000000   120.00000000   180.00000085
 C     17  15  13     1.391500000000   120.00000000     0.00000000
 H     19  17  15     1.080000000000   120.00000000   180.00000000
 C     19  17  15     1.391500000000   120.00000000     0.00000000
 H     21  19  17     1.080000000000   120.00000000   180.00000000
 C     21  19  17     1.391500000000   120.00000000     0.00000000
 H     23  21  19     1.080000000000   120.00000000   180.00000085

---------------------------
INTERNAL COORDINATES (A.U.)
---------------------------
 C      0   0   0     0.000000000000     0.00000000     0.00000000
 H      1   0   0     2.040904224635     0.00000000     0.00000000
 C      1   2   0     2.629553915351   120.00000000     0.00000000
 H      3   1   2     2.040904224635   120.00000000     0.00000000
 C      3   1   2     2.629553915351   120.00000000   180.00000000
 H      5   3   1     2.040904224635   120.00000000   180.00000000
 C      5   3   1     2.629553915351   120.00000000     0.00000000
 H      7   5   3     2.040904224635   120.00000000   180.00000000
 C      7   5   3     2.629553915351   120.00000000     0.00000000
 H      9   7   5     2.040904224635   120.00000000   180.00000085
 C      1   2   3     2.629553915351   120.00000000   180.00000000
 H     11   1   2     2.040904224635   120.00000000     0.00000000
 C      9   7   5     7.369931922293    90.00000000   270.00000000
 H     13   9   7     2.040904224635    90.00000000   240.00000000
 C     13   9   7     2.629553915351    90.00000000     0.00000000
 H     15  13   9     2.040904224635   120.00000000   270.00000000
 C     15  13   9     2.629553915351   120.00000000    90.00000000
 H     17  15  13     2.040904224635   120.00000000   180.00000085
 C     17  15  13     2.629553915351   120.00000000     0.00000000
 H     19  17  15     2.040904224635   120.00000000   180.00000000
 C     19  17  15     2.629553915351   120.00000000     0.00000000
 H     21  19  17     2.040904224635   120.00000000   180.00000000
 C     21  19  17     2.629553915351   120.00000000     0.00000000
 H     23  21  19     2.040904224635   120.00000000   180.00000085

---------------------
BASIS SET INFORMATION
---------------------
There are 2 groups of distinct atoms

 Group   1 Type C   : 10s4p1d contracted to 3s2p1d pattern {631/31/1}
 Group   2 Type H   : 4s1p contracted to 2s1p pattern {31/1}

Atom   0C    basis set group =>   1
Atom   1H    basis set group =>   2
Atom   2C    basis set group =>   1
Atom   3H    basis set group =>   2
Atom   4C    basis set group =>   1
Atom   5H    basis set group =>   2
Atom   6C    basis set group =>   1
Atom   7H    basis set group =>   2
Atom   8C    basis set group =>   1
Atom   9H    basis set group =>   2
Atom  10C    basis set group =>   1
Atom  11H    basis set group =>   2
Atom  12C    basis set group =>   1
Atom  13H    basis set group =>   2
Atom  14C    basis set group =>   1
Atom  15H    basis set group =>   2
Atom  16C    basis set group =>   1
Atom  17H    basis set group =>   2
Atom  18C    basis set group =>   1
Atom  19H    basis set group =>   2
Atom  20C    basis set group =>   1
Atom  21H    basis set group =>   2
Atom  22C    basis set group =>   1
Atom  23H    basis set group =>   2
-------------------------------
AUXILIARY BASIS SET INFORMATION
-------------------------------
There are 2 groups of distinct atoms

 Group   1 Type C   : 12s5p4d2f1g contracted to 6s4p3d1f1g pattern {711111/2111/211/2/1}
 Group   2 Type H   : 5s2p1d contracted to 3s1p1d pattern {311/2/1}

Atom   0C    basis set group =>   1
Atom   1H    basis set group =>   2
Atom   2C    basis set group =>   1
Atom   3H    basis set group =>   2
Atom   4C    basis set group =>   1
Atom   5H    basis set group =>   2
Atom   6C    basis set group =>   1
Atom   7H    basis set group =>   2
Atom   8C    basis set group =>   1
Atom   9H    basis set group =>   2
Atom  10C    basis set group =>   1
Atom  11H    basis set group =>   2
Atom  12C    basis set group =>   1
Atom  13H    basis set group =>   2
Atom  14C    basis set group =>   1
Atom  15H    basis set group =>   2
Atom  16C    basis set group =>   1
Atom  17H    basis set group =>   2
Atom  18C    basis set group =>   1
Atom  19H    basis set group =>   2
Atom  20C    basis set group =>   1
Atom  21H    basis set group =>   2
Atom  22C    basis set group =>   1
Atom  23H    basis set group =>   2
------------------------------------------------------------------------------
                           ORCA GTO INTEGRAL CALCULATION
                           -- RI-GTO INTEGRALS CHOSEN --
------------------------------------------------------------------------------

                         BASIS SET STATISTICS AND STARTUP INFO

Gaussian basis set:
 # of primitive gaussian shells          ...  240
 # of primitive gaussian functions       ...  408
 # of contracted shells                  ...  108
 # of contracted basis functions         ...  228
 Highest angular momentum                ...    2
 Maximum contraction depth               ...    6
Auxiliary gaussian basis set:
 # of primitive gaussian shells          ...  384
 # of primitive gaussian functions       ... 1032
 # of contracted shells                  ...  240
 # of contracted aux-basis functions     ...  720
 Highest angular momentum                ...    4
 Maximum contraction depth               ...    7
Ratio of auxiliary to basis functions    ...  3.16
Integral package used                  ... LIBINT
 One Electron integrals                  ... done
 Ordering auxiliary basis shells         ... done
 Integral threshhold             Thresh  ...  2.500e-11
 Primitive cut-off               TCut    ...  2.500e-12
 Pre-screening matrix                    ... done
 Shell pair data                         ... 
 Ordering of the shell pairs             ... done (   0.001 sec) 5112 of 5886 pairs
 Determination of significant pairs      ... done (   0.000 sec)
 Creation of shell pair data             ... done (   0.002 sec)
 Storage of shell pair data              ... done (   0.005 sec)
 Shell pair data done in (   0.010 sec)
 Computing two index integrals           ... done
 Cholesky decomposition of the V-matrix  ... done


Timings:
 Total evaluation time                   ...   0.295 sec (  0.005 min)
 One electron matrix time                ...   0.041 sec (  0.001 min) = 14.0%
 Schwartz matrix evaluation time         ...   0.161 sec (  0.003 min) = 54.6%
 Two index repulsion integral time       ...   0.027 sec (  0.000 min) =  9.1%
 Cholesky decomposition of V             ...   0.023 sec (  0.000 min) =  7.9%
 Three index repulsion integral time     ...   0.000 sec (  0.000 min) =  0.1%

-------------------------------------------------------------------------------
                                 ORCA SCF
-------------------------------------------------------------------------------

------------
SCF SETTINGS
------------
Hamiltonian:
 Density Functional     Method          .... DFT(GTOs)
 Exchange Functional    Exchange        .... PBE
   PBE kappa parameter   XKappa         ....  0.804000
   PBE mue parameter    XMuePBE         ....  0.219520
 Correlation Functional Correlation     .... PBE
   PBE beta parameter  CBetaPBE         ....  0.066725
 LDA part of GGA corr.  LDAOpt          .... PW91-LDA
 Gradients option       PostSCFGGA      .... off
   NL short-range parameter             ....  6.400000
 RI-approximation to the Coulomb term is turned on
   Number of auxiliary basis functions  .... 720


General Settings:
 Integral files         IntName         .... benzene_dimer
 Hartree-Fock type      HFTyp           .... RHF
 Total Charge           Charge          ....    0
 Multiplicity           Mult            ....    1
 Number of Electrons    NEL             ....   84
 Basis Dimension        Dim             ....  228
 Nuclear Repulsion      ENuc            ....    618.2896427477 Eh

Convergence Acceleration:
 DIIS                   CNVDIIS         .... on
   Start iteration      DIISMaxIt       ....    12
   Startup error        DIISStart       ....  0.200000
   # of expansion vecs  DIISMaxEq       ....     5
   Bias factor          DIISBfac        ....   1.050
   Max. coefficient     DIISMaxC        ....  10.000
 Newton-Raphson         CNVNR           .... off
 SOSCF                  CNVSOSCF        .... on
   Start iteration      SOSCFMaxIt      ....   150
   Startup grad/error   SOSCFStart      ....  0.003300
 Level Shifting         CNVShift        .... on
   Level shift para.    LevelShift      ....    0.2500
   Turn off err/grad.   ShiftErr        ....    0.0010
 Zerner damping         CNVZerner       .... off
 Static damping         CNVDamp         .... on
   Fraction old density DampFac         ....    0.7000
   Max. Damping (<1)    DampMax         ....    0.9800
   Min. Damping (>=0)   DampMin         ....    0.0000
   Turn off err/grad.   DampErr         ....    0.1000
 Fernandez-Rico         CNVRico         .... off

SCF Procedure:
 Maximum # iterations   MaxIter         ....   125
 SCF integral mode      SCFMode         .... Direct
   Integral package                     .... LIBINT
 Reset frequeny         DirectResetFreq ....    20
 Integral Threshold     Thresh          ....  2.500e-11 Eh
 Primitive CutOff       TCut            ....  2.500e-12 Eh

Convergence Tolerance:
 Convergence Check Mode ConvCheckMode   .... Total+1el-Energy
 Convergence forced     ConvForced      .... 0
 Energy Change          TolE            ....  1.000e-08 Eh
 1-El. energy change                    ....  1.000e-05 Eh
 Orbital Gradient       TolG            ....  1.000e-05
 Orbital Rotation angle TolX            ....  1.000e-05
 DIIS Error             TolErr          ....  5.000e-07


Diagonalization of the overlap matrix:
Smallest eigenvalue                        ... 4.730e-04
Time for diagonalization                   ...    0.035 sec
Threshold for overlap eigenvalues          ... 1.000e-08
Number of eigenvalues below threshold      ... 0
Time for construction of square roots      ...    0.020 sec
Total time needed                          ...    0.056 sec

-------------------
DFT GRID GENERATION
-------------------

General Integration Accuracy     IntAcc      ...  4.340
Radial Grid Type                 RadialGrid  ... Gauss-Chebyshev
Angular Grid (max. acc.)         AngularGrid ... Lebedev-110
Angular grid pruning method      GridPruning ... 3 (G Style)
Weight generation scheme         WeightScheme... Becke
Basis function cutoff            BFCut       ...    1.0000e-11
Integration weight cutoff        WCut        ...    1.0000e-14
Grids for H and He will be reduced by one unit

# of grid points (after initial pruning)     ...  29400 (   0.0 sec)
# of grid points (after weights+screening)   ...  26524 (   0.2 sec)
nearest neighbour list constructed           ...    0.0 sec
Grid point re-assignment to atoms done       ...    0.0 sec
Grid point division into batches done        ...    0.0 sec
Reduced shell lists constructed in    0.7 sec

Total number of grid points                  ...    26524
Total number of batches                      ...      432
Average number of points per batch           ...       61
Average number of grid points per atom       ...     1105
Average number of shells per batch           ...    64.80 (60.00%)
Average number of basis functions per batch  ...   132.41 (58.08%)
Average number of large shells per batch     ...    46.69 (72.06%)
Average number of large basis fcns per batch ...    96.83 (73.13%)
Maximum spatial batch extension              ...  20.11, 23.91, 18.01 au
Average spatial batch extension              ...   3.43,  4.07,  3.16 au

Time for grid setup =    0.866 sec

------------------------------
INITIAL GUESS: MODEL POTENTIAL
------------------------------
Loading Hartree-Fock densities                     ... done
Calculating cut-offs                               ... done
Setting up the integral package                    ... done
Initializing the effective Hamiltonian             ... done
Starting the Coulomb interaction                   ... done (   0.6 sec)
Reading the grid                                   ... done
Mapping shells                                     ... done
Starting the XC term evaluation                    ... done (   0.6 sec)
  promolecular density results
     # of electrons  =     84.004465918
     EX              =    -64.875541348
     EC              =     -2.742569824
     EX+EC           =    -67.618111172
Transforming the Hamiltonian                       ... done (   0.0 sec)
Diagonalizing the Hamiltonian                      ... done (   0.0 sec)
Back transforming the eigenvectors                 ... done (   0.0 sec)
Now organizing SCF variables                       ... done
                      ------------------
                      INITIAL GUESS DONE (   2.2 sec)
                      ------------------
--------------
SCF ITERATIONS
--------------
ITER       Energy         Delta-E        Max-DP      RMS-DP      [F,P]     Damp
               ***  Starting incremental Fock matrix formation  ***
  0   -463.6237364514   0.000000000000 0.04187242  0.00169566  0.1203465 0.7000
  1   -463.7441721841  -0.120435732727 0.03994659  0.00131711  0.0591579 0.7000
                               ***Turning on DIIS***
  2   -463.7900902120  -0.045918027902 0.06637558  0.00217480  0.0212500 0.0000
  3   -463.8533322357  -0.063242023652 0.02948871  0.00096961  0.0409174 0.0000
  4   -463.8746608497  -0.021328614006 0.01092013  0.00029494  0.0077535 0.0000
                      *** Initiating the SOSCF procedure ***
                           *** Shutting down DIIS ***
                      *** Re-Reading the Fockian *** 
                      *** Removing any level shift *** 
ITER      Energy       Delta-E        Grad      Rot      Max-DP    RMS-DP
  5   -463.87564791  -0.0009870604  0.000804  0.000804  0.003227  0.000096
               *** Restarting incremental Fock matrix formation ***
  6   -463.87568885  -0.0000409438  0.000288  0.000646  0.001485  0.000047
  7   -463.87568991  -0.0000010542  0.000198  0.000176  0.000221  0.000009
  8   -463.87569111  -0.0000012064  0.000050  0.000078  0.000157  0.000007
  9   -463.87569119  -0.0000000795  0.000025  0.000025  0.000041  0.000002
 10   -463.87569122  -0.0000000290  0.000005  0.000015  0.000017  0.000001
 11   -463.87569123  -0.0000000046  0.000008  0.000010  0.000010  0.000000
                  ***Gradient check signals convergence***
              ***Rediagonalizing the Fockian in SOSCF/NRSCF***

               *****************************************************
               *                     SUCCESS                       *
               *           SCF CONVERGED AFTER  12 CYCLES          *
               *****************************************************

Setting up the final grid:

General Integration Accuracy     IntAcc      ...  4.670
Radial Grid Type                 RadialGrid  ... Gauss-Chebyshev
Angular Grid (max. acc.)         AngularGrid ... Lebedev-302
Angular grid pruning method      GridPruning ... 3 (G Style)
Weight generation scheme         WeightScheme... Becke
Basis function cutoff            BFCut       ...    1.0000e-11
Integration weight cutoff        WCut        ...    1.0000e-14
Grids for H and He will be reduced by one unit

# of grid points (after initial pruning)     ... 115272 (   0.0 sec)
# of grid points (after weights+screening)   ... 102396 (   0.5 sec)
nearest neighbour list constructed           ...    0.0 sec
Grid point re-assignment to atoms done       ...    0.0 sec
Grid point division into batches done        ...    0.3 sec
Reduced shell lists constructed in    2.4 sec

Total number of grid points                  ...   102396
Total number of batches                      ...     1612
Average number of points per batch           ...       63
Average number of grid points per atom       ...     4266
Average number of shells per batch           ...    58.41 (54.09%)
Average number of basis functions per batch  ...   118.61 (52.02%)
Average number of large shells per batch     ...    41.31 (70.72%)
Average number of large basis fcns per batch ...    85.15 (71.78%)
Maximum spatial batch extension              ...  19.49, 23.20, 18.79 au
Average spatial batch extension              ...   2.34,  2.44,  2.25 au

Final grid set up in    3.0 sec
Final integration                            ... done (   2.1 sec)
Change in XC energy                          ...     0.000740882
Integrated number of electrons               ...    83.999933123
Previous integrated no of electrons          ...    84.005418528

----------------
TOTAL SCF ENERGY
----------------

Total Energy       :         -463.87495034 Eh          -12622.67912 eV

Components:
Nuclear Repulsion  :          618.28964275 Eh           16824.51652 eV
Electronic Energy  :        -1082.16459309 Eh          -29447.19564 eV
One Electron Energy:        -1851.92282762 Eh          -50393.38209 eV
Two Electron Energy:          769.75823453 Eh           20946.18645 eV

Virial components:
Potential Energy   :         -925.13579815 Eh          -25174.22490 eV
Kinetic Energy     :          461.26084781 Eh           12551.54578 eV
Virial Ratio       :            2.00566730


DFT components:
N(Alpha)           :       41.999966561254 electrons
N(Beta)            :       41.999966561254 electrons
N(Total)           :       83.999933122507 electrons
E(X)               :      -66.278883584520 Eh       
E(C)               :       -2.765624765187 Eh       
E(XC)              :      -69.044508349706 Eh       

---------------
SCF CONVERGENCE
---------------

  Last Energy change         ...    3.8476e-09  Tolerance :   1.0000e-08
  Last MAX-Density change    ...    4.2110e-06  Tolerance :   1.0000e-07
  Last RMS-Density change    ...    1.6968e-07  Tolerance :   5.0000e-09
  Last Orbital Gradient      ...    1.2772e-06  Tolerance :   1.0000e-05
  Last Orbital Rotation      ...    2.3467e-06  Tolerance :   1.0000e-05

             **** THE GBW FILE WAS UPDATED (benzene_dimer.gbw) ****
             **** DENSITY FILE WAS UPDATED (benzene_dimer.scfp.tmp) ****
             **** ENERGY FILE WAS UPDATED (benzene_dimer.en.tmp) ****
----------------
ORBITAL ENERGIES
----------------

  NO   OCC          E(Eh)            E(eV) 
   0   2.0000      -9.885101      -268.9873 
   1   2.0000      -9.885072      -268.9865 
   2   2.0000      -9.885054      -268.9860 
   3   2.0000      -9.885021      -268.9851 
   4   2.0000      -9.884860      -268.9807 
   5   2.0000      -9.884826      -268.9798 
   6   2.0000      -9.884696      -268.9762 
   7   2.0000      -9.884674      -268.9756 
   8   2.0000      -9.884566      -268.9727 
   9   2.0000      -9.884545      -268.9721 
  10   2.0000      -9.884501      -268.9709 
  11   2.0000      -9.884482      -268.9704 
  12   2.0000      -0.765958       -20.8428 
  13   2.0000      -0.764532       -20.8040 
  14   2.0000      -0.664324       -18.0772 
  15   2.0000      -0.664275       -18.0759 
  16   2.0000      -0.662979       -18.0406 
  17   2.0000      -0.662940       -18.0395 
  18   2.0000      -0.532021       -14.4770 
  19   2.0000      -0.531998       -14.4764 
[...]
 212   0.0000       3.080591        83.8272 
 213   0.0000       3.135475        85.3206 
 214   0.0000       3.142462        85.5107 
 215   0.0000       3.146592        85.6231 
 216   0.0000       3.155352        85.8615 
 217   0.0000       3.155647        85.8695 
 218   0.0000       3.158340        85.9428 
 219   0.0000       3.158639        85.9509 
 220   0.0000       3.287555        89.4589 
 221   0.0000       3.289244        89.5049 
 222   0.0000       3.419179        93.0406 
 223   0.0000       3.419480        93.0488 
 224   0.0000       3.422326        93.1262 
 225   0.0000       3.422627        93.1344 
 226   0.0000       3.866217       105.2051 
 227   0.0000       3.870324       105.3169 

                    ********************************
                    * MULLIKEN POPULATION ANALYSIS *
                    ********************************

-----------------------
MULLIKEN ATOMIC CHARGES
-----------------------
   0 C :   -0.101813
   1 H :    0.098700
   2 C :   -0.088747
   3 H :    0.090289
   4 C :   -0.088736
   5 H :    0.090298
   6 C :   -0.101809
   7 H :    0.098698
   8 C :   -0.088735
   9 H :    0.090290
  10 C :   -0.088732
  11 H :    0.090296
  12 C :   -0.088728
  13 H :    0.090297
  14 C :   -0.101808
  15 H :    0.098698
  16 C :   -0.088743
  17 H :    0.090291
  18 C :   -0.088741
  19 H :    0.090296
  20 C :   -0.101810
  21 H :    0.098700
  22 C :   -0.088740
  23 H :    0.090289
Sum of atomic charges:   -0.0000000

--------------------------------
MULLIKEN REDUCED ORBITAL CHARGES
--------------------------------
  0 C s       :     3.185286  s :     3.185286
      pz      :     0.965308  p :     2.884901
      px      :     0.929292
      py      :     0.990302
      dz2     :     0.010002  d :     0.031625
      dxz     :     0.008931
      dyz     :     0.001902
      dx2y2   :     0.004902
      dxy     :     0.005888
  1 H s       :     0.889485  s :     0.889485
      pz      :     0.006936  p :     0.011815
      px      :     0.002026
      py      :     0.002853
  2 C s       :     3.186634  s :     3.186634
      pz      :     0.932460  p :     2.870576
      px      :     0.949378
      py      :     0.988738
      dz2     :     0.007912  d :     0.031536
      dxz     :     0.011456
      dyz     :     0.004892
      dx2y2   :     0.004383
      dxy     :     0.002893
  3 H s       :     0.897795  s :     0.897795
      pz      :     0.003287  p :     0.011916
      px      :     0.005771
      py      :     0.002859
  4 C s       :     3.186631  s :     3.186631
      pz      :     0.932470  p :     2.870568
      px      :     0.949360
      py      :     0.988738
      dz2     :     0.007911  d :     0.031536
      dxz     :     0.011458
      dyz     :     0.004891
      dx2y2   :     0.004383
      dxy     :     0.002894
  5 H s       :     0.897786  s :     0.897786
      pz      :     0.003288  p :     0.011916
      px      :     0.005769
      py      :     0.002859
  6 C s       :     3.185287  s :     3.185287
      pz      :     0.965311  p :     2.884896
      px      :     0.929289
      py      :     0.990296
      dz2     :     0.010002  d :     0.031625
      dxz     :     0.008931
      dyz     :     0.001902
      dx2y2   :     0.004902
      dxy     :     0.005889
  7 H s       :     0.889487  s :     0.889487
      pz      :     0.006936  p :     0.011815
      px      :     0.002026
      py      :     0.002853
  8 C s       :     3.186630  s :     3.186630
      pz      :     0.932460  p :     2.870568
      px      :     0.949375
      py      :     0.988734
      dz2     :     0.007912  d :     0.031536
      dxz     :     0.011456
      dyz     :     0.004892
      dx2y2   :     0.004383
      dxy     :     0.002893
  9 H s       :     0.897794  s :     0.897794
      pz      :     0.003287  p :     0.011916
      px      :     0.005771
      py      :     0.002859
 10 C s       :     3.186633  s :     3.186633
      pz      :     0.932469  p :     2.870563
      px      :     0.949362
      py      :     0.988732
      dz2     :     0.007910  d :     0.031536
      dxz     :     0.011458
      dyz     :     0.004891
      dx2y2   :     0.004383
      dxy     :     0.002894
 11 H s       :     0.897787  s :     0.897787
      pz      :     0.003288  p :     0.011916
      px      :     0.005769
      py      :     0.002859
 12 C s       :     3.186630  s :     3.186630
      pz      :     0.932469  p :     2.870562
      px      :     0.949360
      py      :     0.988733
      dz2     :     0.007911  d :     0.031536
      dxz     :     0.011458
      dyz     :     0.004891
      dx2y2   :     0.004383
      dxy     :     0.002894
 13 H s       :     0.897787  s :     0.897787
      pz      :     0.003288  p :     0.011916
      px      :     0.005769
      py      :     0.002859
 14 C s       :     3.185288  s :     3.185288
      pz      :     0.965311  p :     2.884895
      px      :     0.929289
      py      :     0.990295
      dz2     :     0.010002  d :     0.031625
      dxz     :     0.008931
      dyz     :     0.001902
      dx2y2   :     0.004902
      dxy     :     0.005889
 15 H s       :     0.889487  s :     0.889487
      pz      :     0.006936  p :     0.011815
      px      :     0.002026
      py      :     0.002853
 16 C s       :     3.186632  s :     3.186632
      pz      :     0.932461  p :     2.870575
      px      :     0.949375
      py      :     0.988739
      dz2     :     0.007912  d :     0.031536
      dxz     :     0.011456
      dyz     :     0.004892
      dx2y2   :     0.004383
      dxy     :     0.002893
 17 H s       :     0.897793  s :     0.897793
      pz      :     0.003287  p :     0.011916
      px      :     0.005771
      py      :     0.002859
 18 C s       :     3.186634  s :     3.186634
      pz      :     0.932469  p :     2.870570
      px      :     0.949363
      py      :     0.988737
      dz2     :     0.007911  d :     0.031536
      dxz     :     0.011458
      dyz     :     0.004891
      dx2y2   :     0.004383
      dxy     :     0.002894
 19 H s       :     0.897788  s :     0.897788
      pz      :     0.003288  p :     0.011916
      px      :     0.005769
      py      :     0.002859
 20 C s       :     3.185286  s :     3.185286
      pz      :     0.965306  p :     2.884899
      px      :     0.929292
      py      :     0.990302
      dz2     :     0.010002  d :     0.031625
      dxz     :     0.008931
      dyz     :     0.001903
      dx2y2   :     0.004902
      dxy     :     0.005888
 21 H s       :     0.889485  s :     0.889485
      pz      :     0.006936  p :     0.011815
      px      :     0.002026
      py      :     0.002853
 22 C s       :     3.186633  s :     3.186633
      pz      :     0.932461  p :     2.870570
      px      :     0.949377
      py      :     0.988733
      dz2     :     0.007912  d :     0.031536
      dxz     :     0.011456
      dyz     :     0.004892
      dx2y2   :     0.004383
      dxy     :     0.002893
 23 H s       :     0.897794  s :     0.897794
      pz      :     0.003287  p :     0.011916
      px      :     0.005771
      py      :     0.002859


                     *******************************
                     * LOEWDIN POPULATION ANALYSIS *
                     *******************************

----------------------
LOEWDIN ATOMIC CHARGES
----------------------
   0 C :   -0.078793
   1 H :    0.078162
   2 C :   -0.076260
   3 H :    0.076571
   4 C :   -0.076261
   5 H :    0.076574
   6 C :   -0.078787
   7 H :    0.078161
   8 C :   -0.076255
   9 H :    0.076571
  10 C :   -0.076255
  11 H :    0.076573
  12 C :   -0.076255
  13 H :    0.076573
  14 C :   -0.078787
  15 H :    0.078161
  16 C :   -0.076261
  17 H :    0.076572
  18 C :   -0.076260
  19 H :    0.076572
  20 C :   -0.078793
  21 H :    0.078162
  22 C :   -0.076255
  23 H :    0.076571

-------------------------------
LOEWDIN REDUCED ORBITAL CHARGES
-------------------------------
  0 C s       :     2.906367  s :     2.906367
      pz      :     1.053490  p :     3.092750
      px      :     1.062757
      py      :     0.976503
      dz2     :     0.023051  d :     0.079676
      dxz     :     0.026240
      dyz     :     0.003276
      dx2y2   :     0.014161
      dxy     :     0.012948
  1 H s       :     0.882692  s :     0.882692
      pz      :     0.025634  p :     0.039146
      px      :     0.005834
      py      :     0.007677
  2 C s       :     2.906290  s :     2.906290
      pz      :     1.059701  p :     3.090209
      px      :     1.054704
      py      :     0.975804
      dz2     :     0.023265  d :     0.079762
      dxz     :     0.030773
      dyz     :     0.010527
      dx2y2   :     0.009499
      dxy     :     0.005698
  3 H s       :     0.884354  s :     0.884354
      pz      :     0.010757  p :     0.039076
      px      :     0.020648
      py      :     0.007670
  4 C s       :     2.906290  s :     2.906290
      pz      :     1.059698  p :     3.090210
      px      :     1.054707
      py      :     0.975804
      dz2     :     0.023261  d :     0.079762
      dxz     :     0.030776
      dyz     :     0.010524
      dx2y2   :     0.009499
      dxy     :     0.005701
  5 H s       :     0.884350  s :     0.884350
      pz      :     0.010763  p :     0.039076
      px      :     0.020642
      py      :     0.007670
  6 C s       :     2.906367  s :     2.906367
      pz      :     1.053490  p :     3.092744
      px      :     1.062757
      py      :     0.976498
      dz2     :     0.023051  d :     0.079676
      dxz     :     0.026240
      dyz     :     0.003276
      dx2y2   :     0.014161
      dxy     :     0.012949
  7 H s       :     0.882693  s :     0.882693
      pz      :     0.025634  p :     0.039146
      px      :     0.005834
      py      :     0.007677
  8 C s       :     2.906288  s :     2.906288
      pz      :     1.059701  p :     3.090205
      px      :     1.054704
      py      :     0.975800
      dz2     :     0.023265  d :     0.079762
      dxz     :     0.030773
      dyz     :     0.010527
      dx2y2   :     0.009499
      dxy     :     0.005698
  9 H s       :     0.884353  s :     0.884353
      pz      :     0.010757  p :     0.039076
      px      :     0.020648
      py      :     0.007670
 10 C s       :     2.906289  s :     2.906289
      pz      :     1.059698  p :     3.090204
      px      :     1.054707
      py      :     0.975798
      dz2     :     0.023261  d :     0.079762
      dxz     :     0.030776
      dyz     :     0.010524
      dx2y2   :     0.009499
      dxy     :     0.005701
 11 H s       :     0.884351  s :     0.884351
      pz      :     0.010763  p :     0.039076
      px      :     0.020642
      py      :     0.007670
 12 C s       :     2.906289  s :     2.906289
      pz      :     1.059698  p :     3.090205
      px      :     1.054707
      py      :     0.975799
      dz2     :     0.023261  d :     0.079762
      dxz     :     0.030776
      dyz     :     0.010524
      dx2y2   :     0.009499
      dxy     :     0.005701
 13 H s       :     0.884351  s :     0.884351
      pz      :     0.010763  p :     0.039076
      px      :     0.020643
      py      :     0.007670
 14 C s       :     2.906367  s :     2.906367
      pz      :     1.053490  p :     3.092744
      px      :     1.062757
      py      :     0.976498
      dz2     :     0.023051  d :     0.079676
      dxz     :     0.026240
      dyz     :     0.003276
      dx2y2   :     0.014161
      dxy     :     0.012949
 15 H s       :     0.882693  s :     0.882693
      pz      :     0.025634  p :     0.039146
      px      :     0.005834
      py      :     0.007677
 16 C s       :     2.906289  s :     2.906289
      pz      :     1.059701  p :     3.090210
      px      :     1.054704
      py      :     0.975805
      dz2     :     0.023265  d :     0.079762
      dxz     :     0.030772
      dyz     :     0.010527
      dx2y2   :     0.009499
      dxy     :     0.005698
 17 H s       :     0.884353  s :     0.884353
      pz      :     0.010757  p :     0.039076
      px      :     0.020648
      py      :     0.007670
 18 C s       :     2.906290  s :     2.906290
      pz      :     1.059698  p :     3.090208
      px      :     1.054707
      py      :     0.975803
      dz2     :     0.023261  d :     0.079762
      dxz     :     0.030776
      dyz     :     0.010524
      dx2y2   :     0.009499
      dxy     :     0.005701
 19 H s       :     0.884352  s :     0.884352
      pz      :     0.010763  p :     0.039076
      px      :     0.020642
      py      :     0.007670
 20 C s       :     2.906367  s :     2.906367
      pz      :     1.053490  p :     3.092750
      px      :     1.062757
      py      :     0.976503
      dz2     :     0.023051  d :     0.079676
      dxz     :     0.026240
      dyz     :     0.003276
      dx2y2   :     0.014161
      dxy     :     0.012948
 21 H s       :     0.882692  s :     0.882692
      pz      :     0.025634  p :     0.039146
      px      :     0.005834
      py      :     0.007677
 22 C s       :     2.906289  s :     2.906289
      pz      :     1.059701  p :     3.090204
      px      :     1.054704
      py      :     0.975799
      dz2     :     0.023265  d :     0.079762
      dxz     :     0.030773
      dyz     :     0.010527
      dx2y2   :     0.009499
      dxy     :     0.005698
 23 H s       :     0.884353  s :     0.884353
      pz      :     0.010757  p :     0.039076
      px      :     0.020648
      py      :     0.007670


                      *****************************
                      * MAYER POPULATION ANALYSIS *
                      *****************************

  NA   - Mulliken gross atomic population
  ZA   - Total nuclear charge
  QA   - Mulliken gross atomic charge
  VA   - Mayer's total valence
  BVA  - Mayer's bonded valence
  FA   - Mayer's free valence

  ATOM       NA         ZA         QA         VA         BVA        FA
  0 C      6.1018     6.0000    -0.1018     3.9523     3.9523    -0.0000
  1 H      0.9013     1.0000     0.0987     0.9550     0.9550    -0.0000
  2 C      6.0887     6.0000    -0.0887     3.9541     3.9541    -0.0000
  3 H      0.9097     1.0000     0.0903     0.9568     0.9568    -0.0000
  4 C      6.0887     6.0000    -0.0887     3.9541     3.9541    -0.0000
  5 H      0.9097     1.0000     0.0903     0.9568     0.9568     0.0000
  6 C      6.1018     6.0000    -0.1018     3.9523     3.9523    -0.0000
  7 H      0.9013     1.0000     0.0987     0.9550     0.9550    -0.0000
  8 C      6.0887     6.0000    -0.0887     3.9541     3.9541    -0.0000
  9 H      0.9097     1.0000     0.0903     0.9568     0.9568    -0.0000
 10 C      6.0887     6.0000    -0.0887     3.9541     3.9541    -0.0000
 11 H      0.9097     1.0000     0.0903     0.9568     0.9568     0.0000
 12 C      6.0887     6.0000    -0.0887     3.9541     3.9541    -0.0000
 13 H      0.9097     1.0000     0.0903     0.9568     0.9568    -0.0000
 14 C      6.1018     6.0000    -0.1018     3.9523     3.9523    -0.0000
 15 H      0.9013     1.0000     0.0987     0.9550     0.9550    -0.0000
 16 C      6.0887     6.0000    -0.0887     3.9541     3.9541    -0.0000
 17 H      0.9097     1.0000     0.0903     0.9568     0.9568     0.0000
 18 C      6.0887     6.0000    -0.0887     3.9541     3.9541    -0.0000
 19 H      0.9097     1.0000     0.0903     0.9568     0.9568    -0.0000
 20 C      6.1018     6.0000    -0.1018     3.9523     3.9523    -0.0000
 21 H      0.9013     1.0000     0.0987     0.9550     0.9550    -0.0000
 22 C      6.0887     6.0000    -0.0887     3.9541     3.9541    -0.0000
 23 H      0.9097     1.0000     0.0903     0.9568     0.9568     0.0000

  Mayer bond orders larger than 0.1
B(  0-C ,  1-H ) :   0.9348 B(  0-C ,  2-C ) :   1.4475 B(  0-C , 10-C ) :   1.4475 
B(  2-C ,  3-H ) :   0.9359 B(  2-C ,  4-C ) :   1.4482 B(  4-C ,  5-H ) :   0.9359 
B(  4-C ,  6-C ) :   1.4475 B(  6-C ,  7-H ) :   0.9348 B(  6-C ,  8-C ) :   1.4475 
B(  8-C ,  9-H ) :   0.9359 B(  8-C , 10-C ) :   1.4482 B( 10-C , 11-H ) :   0.9359 
B( 12-C , 13-H ) :   0.9359 B( 12-C , 14-C ) :   1.4475 B( 12-C , 22-C ) :   1.4482 
B( 14-C , 15-H ) :   0.9348 B( 14-C , 16-C ) :   1.4475 B( 16-C , 17-H ) :   0.9359 
B( 16-C , 18-C ) :   1.4482 B( 18-C , 19-H ) :   0.9359 B( 18-C , 20-C ) :   1.4475 
B( 20-C , 21-H ) :   0.9348 B( 20-C , 22-C ) :   1.4475 B( 22-C , 23-H ) :   0.9359 


-------
TIMINGS
-------

Total SCF time: 0 days 0 hours 0 min 11 sec 

Total time                  ....      11.721 sec
Sum of individual times     ....      11.484 sec  ( 98.0%)

Fock matrix formation       ....       7.481 sec  ( 63.8%)
  Split-RI-J                ....       3.323 sec  ( 44.4% of F)
  XC integration            ....       4.113 sec  ( 55.0% of F)
    Basis function eval.    ....       2.285 sec  ( 55.6% of XC)
    Density eval.           ....       0.585 sec  ( 14.2% of XC)
    XC-Functional eval.     ....       0.212 sec  (  5.1% of XC)
    XC-Potential eval.      ....       0.926 sec  ( 22.5% of XC)
Diagonalization             ....       0.026 sec  (  0.2%)
Density matrix formation    ....       0.005 sec  (  0.0%)
Population analysis         ....       0.200 sec  (  1.7%)
Initial guess               ....       0.025 sec  (  0.2%)
Orbital Transformation      ....       0.000 sec  (  0.0%)
Orbital Orthonormalization  ....       0.015 sec  (  0.1%)
DIIS solution               ....       0.003 sec  (  0.0%)
SOSCF solution              ....       0.040 sec  (  0.3%)
Grid generation             ....       3.704 sec  ( 31.6%)

-------------------------   --------------------
FINAL SINGLE POINT ENERGY      -463.878485938270
-------------------------   --------------------

                                *** OPTIMIZATION RUN DONE ***

                            ***************************************
                            *     ORCA property calculations      *
                            ***************************************

                                    ---------------------
                                    Active property flags
                                    ---------------------
   (+) Dipole Moment


------------------------------------------------------------------------------
                       ORCA ELECTRIC PROPERTIES CALCULATION
------------------------------------------------------------------------------

Dipole Moment Calculation                       ... on
Quadrupole Moment Calculation                   ... off
Polarizability Calculation                      ... off
GBWName                                         ... benzene_dimer.gbw
Electron density file                           ... benzene_dimer.scfp.tmp
The origin for moment calculation is the CENTER OF MASS  = (-0.000001,  0.000001 -0.000000)

-------------
DIPOLE MOMENT
-------------
                                X             Y             Z
Electronic contribution:     -0.00007       0.00001      -0.00003
Nuclear contribution   :      0.00001      -0.00001       0.00000
                        -----------------------------------------
Total Dipole Moment    :     -0.00006      -0.00000      -0.00003
                        -----------------------------------------
Magnitude (a.u.)       :      0.00007
Magnitude (Debye)      :      0.00018


Timings for individual modules:

Sum of individual times         ...      694.465 sec (=  11.574 min)
GTO integral calculation        ...        8.148 sec (=   0.136 min)   1.2 %
SCF iterations                  ...      346.350 sec (=   5.773 min)  49.9 %
SCF Gradient evaluation         ...      303.467 sec (=   5.058 min)  43.7 %
Geometry relaxation             ...       36.500 sec (=   0.608 min)   5.3 %
                             ****ORCA TERMINATED NORMALLY****
TOTAL RUN TIME: 0 days 0 hours 11 minutes 43 seconds 321 msec
